# Probe 0 (0 0 0)
# Probe 1 (1 0 0)
# Probe 2 (1 1 0)
# Probe 3 (0 1 0)
# Probe 4 (0.62 0.27 0)
# Probe 5 (0.52 0.17 0)
# Probe 6 (0.42 0.27 0)
# Probe 7 (0.52 0.37 0)
# Probe 8 (0.05 0 0)
# Probe 9 (0.1 0 0)
# Probe 10 (0.15 0 0)
# Probe 11 (0.2 0 0)
# Probe 12 (0.25 0 0)
# Probe 13 (0.3 0 0)
# Probe 14 (0.35 0 0)
# Probe 15 (0.4 0 0)
# Probe 16 (0.45 0 0)
# Probe 17 (0.5 0 0)
# Probe 18 (0.55 0 0)
# Probe 19 (0.6 0 0)
# Probe 20 (0.65 0 0)
# Probe 21 (0.7 0 0)
# Probe 22 (0.75 0 0)
# Probe 23 (0.8 0 0)
# Probe 24 (0.85 0 0)
# Probe 25 (0.9 0 0)
# Probe 26 (0.95 0 0)
# Probe 27 (1 0.05 0)
# Probe 28 (1 0.1 0)
# Probe 29 (1 0.15 0)
# Probe 30 (1 0.2 0)
# Probe 31 (1 0.25 0)
# Probe 32 (1 0.3 0)
# Probe 33 (1 0.35 0)
# Probe 34 (1 0.4 0)
# Probe 35 (1 0.45 0)
# Probe 36 (1 0.5 0)
# Probe 37 (1 0.55 0)
# Probe 38 (1 0.6 0)
# Probe 39 (1 0.65 0)
# Probe 40 (1 0.7 0)
# Probe 41 (1 0.75 0)
# Probe 42 (1 0.8 0)
# Probe 43 (1 0.85 0)
# Probe 44 (1 0.9 0)
# Probe 45 (1 0.95 0)
# Probe 46 (0.95 1 0)
# Probe 47 (0.9 1 0)
# Probe 48 (0.85 1 0)
# Probe 49 (0.8 1 0)
# Probe 50 (0.75 1 0)
# Probe 51 (0.7 1 0)
# Probe 52 (0.65 1 0)
# Probe 53 (0.6 1 0)
# Probe 54 (0.55 1 0)
# Probe 55 (0.5 1 0)
# Probe 56 (0.45 1 0)
# Probe 57 (0.4 1 0)
# Probe 58 (0.35 1 0)
# Probe 59 (0.3 1 0)
# Probe 60 (0.25 1 0)
# Probe 61 (0.2 1 0)
# Probe 62 (0.15 1 0)
# Probe 63 (0.1 1 0)
# Probe 64 (0.05 1 0)
# Probe 65 (0 0.95 0)
# Probe 66 (0 0.9 0)
# Probe 67 (0 0.85 0)
# Probe 68 (0 0.8 0)
# Probe 69 (0 0.75 0)
# Probe 70 (0 0.7 0)
# Probe 71 (0 0.65 0)
# Probe 72 (0 0.6 0)
# Probe 73 (0 0.55 0)
# Probe 74 (0 0.5 0)
# Probe 75 (0 0.45 0)
# Probe 76 (0 0.4 0)
# Probe 77 (0 0.35 0)
# Probe 78 (0 0.3 0)
# Probe 79 (0 0.25 0)
# Probe 80 (0 0.2 0)
# Probe 81 (0 0.15 0)
# Probe 82 (0 0.1 0)
# Probe 83 (0 0.05 0)
# Probe 84 (0.61952 0.2602 0)
# Probe 85 (0.61808 0.25049 0)
# Probe 86 (0.61569 0.24097 0)
# Probe 87 (0.61239 0.23173 0)
# Probe 88 (0.60819 0.22286 0)
# Probe 89 (0.60315 0.21444 0)
# Probe 90 (0.5973 0.20656 0)
# Probe 91 (0.59071 0.19929 0)
# Probe 92 (0.58344 0.1927 0)
# Probe 93 (0.57556 0.18685 0)
# Probe 94 (0.56714 0.18181 0)
# Probe 95 (0.55827 0.17761 0)
# Probe 96 (0.54903 0.17431 0)
# Probe 97 (0.53951 0.17192 0)
# Probe 98 (0.5298 0.17048 0)
# Probe 99 (0.5102 0.17048 0)
# Probe 100 (0.50049 0.17192 0)
# Probe 101 (0.49097 0.17431 0)
# Probe 102 (0.48173 0.17761 0)
# Probe 103 (0.47286 0.18181 0)
# Probe 104 (0.46444 0.18685 0)
# Probe 105 (0.45656 0.1927 0)
# Probe 106 (0.44929 0.19929 0)
# Probe 107 (0.4427 0.20656 0)
# Probe 108 (0.43685 0.21444 0)
# Probe 109 (0.43181 0.22286 0)
# Probe 110 (0.42761 0.23173 0)
# Probe 111 (0.42431 0.24097 0)
# Probe 112 (0.42192 0.25049 0)
# Probe 113 (0.42048 0.2602 0)
# Probe 114 (0.42048 0.2798 0)
# Probe 115 (0.42192 0.28951 0)
# Probe 116 (0.42431 0.29903 0)
# Probe 117 (0.42761 0.30827 0)
# Probe 118 (0.43181 0.31714 0)
# Probe 119 (0.43685 0.32556 0)
# Probe 120 (0.4427 0.33344 0)
# Probe 121 (0.44929 0.34071 0)
# Probe 122 (0.45656 0.3473 0)
# Probe 123 (0.46444 0.35315 0)
# Probe 124 (0.47286 0.35819 0)
# Probe 125 (0.48173 0.36239 0)
# Probe 126 (0.49097 0.36569 0)
# Probe 127 (0.50049 0.36808 0)
# Probe 128 (0.5102 0.36952 0)
# Probe 129 (0.5298 0.36952 0)
# Probe 130 (0.53951 0.36808 0)
# Probe 131 (0.54903 0.36569 0)
# Probe 132 (0.55827 0.36239 0)
# Probe 133 (0.56714 0.35819 0)
# Probe 134 (0.57556 0.35315 0)
# Probe 135 (0.58344 0.3473 0)
# Probe 136 (0.59071 0.34071 0)
# Probe 137 (0.5973 0.33344 0)
# Probe 138 (0.60315 0.32556 0)
# Probe 139 (0.60819 0.31714 0)
# Probe 140 (0.61239 0.30827 0)
# Probe 141 (0.61569 0.29903 0)
# Probe 142 (0.61808 0.28951 0)
# Probe 143 (0.61952 0.2798 0)
# Probe 144 (0.37811 0.95866 0)
# Probe 145 (0.62603 0.96135 0)
# Probe 146 (0.04431 0.62633 0)
# Probe 147 (0.95634 0.6321 0)
# Probe 148 (0.04354 0.4725 0)
# Probe 149 (0.9567 0.475 0)
# Probe 150 (0.04277 0.32663 0)
# Probe 151 (0.23208 0.04384 0)
# Probe 152 (0.9567 0.325 0)
# Probe 153 (0.77056 0.03785 0)
# Probe 154 (0.58492 0.18277 0)
# Probe 155 (0.225 0.9567 0)
# Probe 156 (0.95969 0.77734 0)
# Probe 157 (0.46388 0.17663 0)
# Probe 158 (0.5568 0.16765 0)
# Probe 159 (0.49368 0.16492 0)
# Probe 160 (0.03502 0.77228 0)
# Probe 161 (0.78231 0.954 0)
# Probe 162 (0.52479 0.16314 0)
# Probe 163 (0.9567 0.175 0)
# Probe 164 (0.04407 0.17274 0)
# Probe 165 (0.67321 0.03876 0)
# Probe 166 (0.37158 0.04149 0)
# Probe 167 (0.52707 0.95502 0)
# Probe 168 (0.87488 0.95509 0)
# Probe 169 (0.04056 0.875 0)
# Probe 170 (0.57131 0.04121 0)
# Probe 171 (0.46742 0.03954 0)
# Probe 172 (0.87081 0.04483 0)
# Probe 173 (0.12301 0.04358 0)
# Probe 174 (0.12778 0.96014 0)
# Probe 175 (0.9512 0.88018 0)
# Probe 176 (0.9514 0.0748 0)
# Probe 177 (0.0433 0.075 0)
# Probe 178 (0.53318 0.0389 0)
# Probe 179 (0.50534 0.07756 0)
# Probe 180 (0.55024 0.07712 0)
# Probe 181 (0.58552 0.07825 0)
# Probe 182 (0.56986 0.10496 0)
# Probe 183 (0.59699 0.10711 0)
# Probe 184 (0.58144 0.12775 0)
# Probe 185 (0.60573 0.13366 0)
# Probe 186 (0.6229 0.11149 0)
# Probe 187 (0.63205 0.13528 0)
# Probe 188 (0.60724 0.20528 0)
# Probe 189 (0.64864 0.11553 0)
# Probe 190 (0.65762 0.13979 0)
# Probe 191 (0.67525 0.12019 0)
# Probe 192 (0.68486 0.14547 0)
# Probe 193 (0.66465 0.16276 0)
# Probe 194 (0.68901 0.17326 0)
# Probe 195 (0.62631 0.24425 0)
# Probe 196 (0.71269 0.15176 0)
# Probe 197 (0.71884 0.17839 0)
# Probe 198 (0.70025 0.1983 0)
# Probe 199 (0.72573 0.2044 0)
# Probe 200 (0.70752 0.2226 0)
# Probe 201 (0.73229 0.22967 0)
# Probe 202 (0.6285 0.27549 0)
# Probe 203 (0.71091 0.24825 0)
# Probe 204 (0.73856 0.25459 0)
# Probe 205 (0.72094 0.27259 0)
# Probe 206 (0.74555 0.27918 0)
# Probe 207 (0.72782 0.29733 0)
# Probe 208 (0.75222 0.30381 0)
# Probe 209 (0.73386 0.32152 0)
# Probe 210 (0.61797 0.31634 0)
# Probe 211 (0.75862 0.32854 0)
# Probe 212 (0.7363 0.34693 0)
# Probe 213 (0.76532 0.35413 0)
# Probe 214 (0.74606 0.37214 0)
# Probe 215 (0.72086 0.36655 0)
# Probe 216 (0.72716 0.39036 0)
# Probe 217 (0.60031 0.34308 0)
# Probe 218 (0.75246 0.39763 0)
# Probe 219 (0.73286 0.41521 0)
# Probe 220 (0.70823 0.40743 0)
# Probe 221 (0.71331 0.43214 0)
# Probe 222 (0.6895 0.42372 0)
# Probe 223 (0.69402 0.44883 0)
# Probe 224 (0.576 0.36284 0)
# Probe 225 (0.71635 0.46008 0)
# Probe 226 (0.69746 0.47489 0)
# Probe 227 (0.67337 0.46512 0)
# Probe 228 (0.67882 0.49263 0)
# Probe 229 (0.65365 0.48219 0)
# Probe 230 (0.65898 0.50925 0)
# Probe 231 (0.63426 0.49931 0)
# Probe 232 (0.63785 0.52424 0)
# Probe 233 (0.61341 0.51648 0)
# Probe 234 (0.61733 0.5408 0)
# Probe 235 (0.59197 0.53233 0)
# Probe 236 (0.59649 0.55746 0)
# Probe 237 (0.57225 0.54778 0)
# Probe 238 (0.62152 0.56785 0)
# Probe 239 (0.57535 0.57482 0)
# Probe 240 (0.55223 0.56456 0)
# Probe 241 (0.52565 0.37789 0)
# Probe 242 (0.55334 0.5932 0)
# Probe 243 (0.52592 0.57777 0)
# Probe 244 (0.53062 0.61064 0)
# Probe 245 (0.50187 0.59966 0)
# Probe 246 (0.49669 0.57034 0)
# Probe 247 (0.47307 0.58992 0)
# Probe 248 (0.46791 0.55971 0)
# Probe 249 (0.4446 0.58036 0)
# Probe 250 (0.4943 0.37533 0)
# Probe 251 (0.44062 0.54902 0)
# Probe 252 (0.41684 0.5671 0)
# Probe 253 (0.4128 0.53752 0)
# Probe 254 (0.41733 0.59881 0)
# Probe 255 (0.5077 0.63292 0)
# Probe 256 (0.38912 0.55688 0)
# Probe 257 (0.3853 0.52586 0)
# Probe 258 (0.46391 0.36312 0)
# Probe 259 (0.55988 0.61827 0)
# Probe 260 (0.36101 0.54586 0)
# Probe 261 (0.35968 0.50982 0)
# Probe 262 (0.70663 0.50276 0)
# Probe 263 (0.3327 0.53282 0)
# Probe 264 (0.32949 0.50201 0)
# Probe 265 (0.3353 0.56601 0)
# Probe 266 (0.35038 0.48019 0)
# Probe 267 (0.44005 0.34243 0)
# Probe 268 (0.3235 0.47324 0)
# Probe 269 (0.56806 0.52246 0)
# Probe 270 (0.30294 0.51854 0)
# Probe 271 (0.46477 0.53252 0)
# Probe 272 (0.34665 0.45434 0)
# Probe 273 (0.32197 0.44495 0)
# Probe 274 (0.34365 0.429 0)
# Probe 275 (0.31911 0.41834 0)
# Probe 276 (0.42202 0.31682 0)
# Probe 277 (0.29685 0.43426 0)
# Probe 278 (0.29386 0.40685 0)
# Probe 279 (0.31837 0.38827 0)
# Probe 280 (0.2918 0.37948 0)
# Probe 281 (0.31207 0.36247 0)
# Probe 282 (0.28921 0.35341 0)
# Probe 283 (0.41479 0.24344 0)
# Probe 284 (0.41111 0.27567 0)
# Probe 285 (0.2697 0.39534 0)
# Probe 286 (0.30983 0.33883 0)
# Probe 287 (0.28683 0.32831 0)
# Probe 288 (0.30747 0.31391 0)
# Probe 289 (0.28452 0.30309 0)
# Probe 290 (0.30457 0.28936 0)
# Probe 291 (0.28176 0.27727 0)
# Probe 292 (0.30334 0.26149 0)
# Probe 293 (0.42683 0.21395 0)
# Probe 294 (0.36611 0.43701 0)
# Probe 295 (0.27728 0.24996 0)
# Probe 296 (0.30025 0.23109 0)
# Probe 297 (0.2566 0.31816 0)
# Probe 298 (0.62734 0.4733 0)
# Probe 299 (0.5465 0.37512 0)
# Probe 300 (0.41532 0.29624 0)
# Probe 301 (0.62619 0.29695 0)
# Probe 302 (0.76747 0.28622 0)
# Probe 303 (0.43993 0.19742 0)
# Probe 304 (0.74473 0.18725 0)
# Probe 305 (0.36392 0.41471 0)
# Probe 306 (0.38454 0.42241 0)
# Probe 307 (0.27395 0.21991 0)
# Probe 308 (0.24862 0.23912 0)
# Probe 309 (0.68457 0.40166 0)
# Probe 310 (0.33253 0.34912 0)
# Probe 311 (0.29868 0.20277 0)
# Probe 312 (0.38216 0.40197 0)
# Probe 313 (0.40098 0.4093 0)
# Probe 314 (0.4044 0.42927 0)
# Probe 315 (0.41961 0.41632 0)
# Probe 316 (0.71048 0.31373 0)
# Probe 317 (0.24567 0.20592 0)
# Probe 318 (0.21779 0.22691 0)
# Probe 319 (0.42338 0.43544 0)
# Probe 320 (0.4378 0.42295 0)
# Probe 321 (0.32643 0.30263 0)
# Probe 322 (0.44158 0.44164 0)
# Probe 323 (0.45568 0.42936 0)
# Probe 324 (0.45942 0.44782 0)
# Probe 325 (0.47331 0.43569 0)
# Probe 326 (0.47713 0.45399 0)
# Probe 327 (0.49104 0.44183 0)
# Probe 328 (0.49509 0.46045 0)
# Probe 329 (0.50898 0.4478 0)
# Probe 330 (0.75867 0.42398 0)
# Probe 331 (0.32399 0.21348 0)
# Probe 332 (0.32361 0.18688 0)
# Probe 333 (0.21473 0.19041 0)
# Probe 334 (0.29869 0.17158 0)
# Probe 335 (0.7798 0.406 0)
# Probe 336 (0.78633 0.43481 0)
# Probe 337 (0.80943 0.41385 0)
# Probe 338 (0.81686 0.44451 0)
# Probe 339 (0.39836 0.38954 0)
# Probe 340 (0.66137 0.5336 0)
# Probe 341 (0.79222 0.46647 0)
# Probe 342 (0.82404 0.47703 0)
# Probe 343 (0.79826 0.49972 0)
# Probe 344 (0.83103 0.51058 0)
# Probe 345 (0.80457 0.53404 0)
# Probe 346 (0.75723 0.23489 0)
# Probe 347 (0.84112 0.4217 0)
# Probe 348 (0.83225 0.3918 0)
# Probe 349 (0.34955 0.19928 0)
# Probe 350 (0.34676 0.17155 0)
# Probe 351 (0.34535 0.22702 0)
# Probe 352 (0.6973 0.26587 0)
# Probe 353 (0.6679 0.41568 0)
# Probe 354 (0.66317 0.39565 0)
# Probe 355 (0.6481 0.40759 0)
# Probe 356 (0.6442 0.38873 0)
# Probe 357 (0.63033 0.40038 0)
# Probe 358 (0.66055 0.37658 0)
# Probe 359 (0.18481 0.21238 0)
# Probe 360 (0.18943 0.24929 0)
# Probe 361 (0.50554 0.42962 0)
# Probe 362 (0.52307 0.43504 0)
# Probe 363 (0.52794 0.45308 0)
# Probe 364 (0.5402 0.44036 0)
# Probe 365 (0.44486 0.46014 0)
# Probe 366 (0.83893 0.54619 0)
# Probe 367 (0.81119 0.56991 0)
# Probe 368 (0.43326 0.40541 0)
# Probe 369 (0.37108 0.18444 0)
# Probe 370 (0.36879 0.15702 0)
# Probe 371 (0.34406 0.14124 0)
# Probe 372 (0.78552 0.33476 0)
# Probe 373 (0.18033 0.17483 0)
# Probe 374 (0.77744 0.5572 0)
# Probe 375 (0.78318 0.59311 0)
# Probe 376 (0.81739 0.60588 0)
# Probe 377 (0.78865 0.62967 0)
# Probe 378 (0.75588 0.61081 0)
# Probe 379 (0.75345 0.64859 0)
# Probe 380 (0.79488 0.66638 0)
# Probe 381 (0.76387 0.69083 0)
# Probe 382 (0.72386 0.67666 0)
# Probe 383 (0.73202 0.71562 0)
# Probe 384 (0.77035 0.73104 0)
# Probe 385 (0.73832 0.75577 0)
# Probe 386 (0.70049 0.73977 0)
# Probe 387 (0.77667 0.77207 0)
# Probe 388 (0.70588 0.77997 0)
# Probe 389 (0.66849 0.76365 0)
# Probe 390 (0.66374 0.72404 0)
# Probe 391 (0.63203 0.74695 0)
# Probe 392 (0.63608 0.78716 0)
# Probe 393 (0.59943 0.77003 0)
# Probe 394 (0.60303 0.81078 0)
# Probe 395 (0.56636 0.79353 0)
# Probe 396 (0.56363 0.75275 0)
# Probe 397 (0.52967 0.77622 0)
# Probe 398 (0.64062 0.82813 0)
# Probe 399 (0.80978 0.74613 0)
# Probe 400 (0.81628 0.78839 0)
# Probe 401 (0.53209 0.81688 0)
# Probe 402 (0.49639 0.79904 0)
# Probe 403 (0.49327 0.75916 0)
# Probe 404 (0.46064 0.78136 0)
# Probe 405 (0.45739 0.7429 0)
# Probe 406 (0.42525 0.76418 0)
# Probe 407 (0.42202 0.7257 0)
# Probe 408 (0.38959 0.74645 0)
# Probe 409 (0.39236 0.78592 0)
# Probe 410 (0.35643 0.7682 0)
# Probe 411 (0.3539 0.72808 0)
# Probe 412 (0.32035 0.75008 0)
# Probe 413 (0.31804 0.70851 0)
# Probe 414 (0.28404 0.73148 0)
# Probe 415 (0.28182 0.68968 0)
# Probe 416 (0.24754 0.71302 0)
# Probe 417 (0.24517 0.67155 0)
# Probe 418 (0.25025 0.75522 0)
# Probe 419 (0.21082 0.69456 0)
# Probe 420 (0.20831 0.65256 0)
# Probe 421 (0.32382 0.79224 0)
# Probe 422 (0.46239 0.82068 0)
# Probe 423 (0.68384 0.21665 0)
# Probe 424 (0.17325 0.6758 0)
# Probe 425 (0.17135 0.63373 0)
# Probe 426 (0.17532 0.71853 0)
# Probe 427 (0.20603 0.61109 0)
# Probe 428 (0.1699 0.59248 0)
# Probe 429 (0.15462 0.23471 0)
# Probe 430 (0.16032 0.27078 0)
# Probe 431 (0.46874 0.41773 0)
# Probe 432 (0.20392 0.57061 0)
# Probe 433 (0.16851 0.5521 0)
# Probe 434 (0.20186 0.53105 0)
# Probe 435 (0.16771 0.51384 0)
# Probe 436 (0.19977 0.49235 0)
# Probe 437 (0.16089 0.47392 0)
# Probe 438 (0.53524 0.42204 0)
# Probe 439 (0.55245 0.42454 0)
# Probe 440 (0.55755 0.4448 0)
# Probe 441 (0.57045 0.43174 0)
# Probe 442 (0.62683 0.38336 0)
# Probe 443 (0.61425 0.39413 0)
# Probe 444 (0.61656 0.41116 0)
# Probe 445 (0.56728 0.41528 0)
# Probe 446 (0.40715 0.44948 0)
# Probe 447 (0.78193 0.81501 0)
# Probe 448 (0.35199 0.68813 0)
# Probe 449 (0.39535 0.16768 0)
# Probe 450 (0.39036 0.14263 0)
# Probe 451 (0.41369 0.15118 0)
# Probe 452 (0.41049 0.12853 0)
# Probe 453 (0.43536 0.14112 0)
# Probe 454 (0.86766 0.39561 0)
# Probe 455 (0.85662 0.36312 0)
# Probe 456 (0.62849 0.7081 0)
# Probe 457 (0.38062 0.38254 0)
# Probe 458 (0.39517 0.37101 0)
# Probe 459 (0.57562 0.45041 0)
# Probe 460 (0.82276 0.8322 0)
# Probe 461 (0.13635 0.69905 0)
# Probe 462 (0.27819 0.64719 0)
# Probe 463 (0.61122 0.37849 0)
# Probe 464 (0.5996 0.38846 0)
# Probe 465 (0.62153 0.36836 0)
# Probe 466 (0.19671 0.45409 0)
# Probe 467 (0.16452 0.43631 0)
# Probe 468 (0.37916 0.36424 0)
# Probe 469 (0.39324 0.35418 0)
# Probe 470 (0.37784 0.34715 0)
# Probe 471 (0.39126 0.33756 0)
# Probe 472 (0.37633 0.33069 0)
# Probe 473 (0.13312 0.53613 0)
# Probe 474 (0.21239 0.15218 0)
# Probe 475 (0.12393 0.25636 0)
# Probe 476 (0.40798 0.36037 0)
# Probe 477 (0.56311 0.46391 0)
# Probe 478 (0.38928 0.32139 0)
# Probe 479 (0.37486 0.31451 0)
# Probe 480 (0.43106 0.11421 0)
# Probe 481 (0.45495 0.12471 0)
# Probe 482 (0.60639 0.85253 0)
# Probe 483 (0.55896 0.12759 0)
# Probe 484 (0.48025 0.47347 0)
# Probe 485 (0.49961 0.48028 0)
# Probe 486 (0.19542 0.41672 0)
# Probe 487 (0.16269 0.39938 0)
# Probe 488 (0.19368 0.37938 0)
# Probe 489 (0.13894 0.41764 0)
# Probe 490 (0.16092 0.36246 0)
# Probe 491 (0.61843 0.15163 0)
# Probe 492 (0.1926 0.34434 0)
# Probe 493 (0.58175 0.46983 0)
# Probe 494 (0.86694 0.52139 0)
# Probe 495 (0.87514 0.55914 0)
# Probe 496 (0.48301 0.71969 0)
# Probe 497 (0.13873 0.74327 0)
# Probe 498 (0.22993 0.47141 0)
# Probe 499 (0.17622 0.13548 0)
# Probe 500 (0.38748 0.30553 0)
# Probe 501 (0.37373 0.29881 0)
# Probe 502 (0.41015 0.50876 0)
# Probe 503 (0.38579 0.28981 0)
# Probe 504 (0.37182 0.28307 0)
# Probe 505 (0.38675 0.27363 0)
# Probe 506 (0.36967 0.26658 0)
# Probe 507 (0.38332 0.25749 0)
# Probe 508 (0.39453 0.19087 0)
# Probe 509 (0.23924 0.58904 0)
# Probe 510 (0.85049 0.76131 0)
# Probe 511 (0.65088 0.42799 0)
# Probe 512 (0.64528 0.87121 0)
# Probe 513 (0.65844 0.68599 0)
# Probe 514 (0.62513 0.67123 0)
# Probe 515 (0.65342 0.64996 0)
# Probe 516 (0.38734 0.11657 0)
# Probe 517 (0.36419 0.37437 0)
# Probe 518 (0.87578 0.43146 0)
# Probe 519 (0.14479 0.15862 0)
# Probe 520 (0.59529 0.6918 0)
# Probe 521 (0.9047 0.40386 0)
# Probe 522 (0.36107 0.32363 0)
# Probe 523 (0.12899 0.29509 0)
# Probe 524 (0.78708 0.85946 0)
# Probe 525 (0.62195 0.636 0)
# Probe 526 (0.58871 0.43674 0)
# Probe 527 (0.43466 0.1631 0)
# Probe 528 (0.13287 0.61539 0)
# Probe 529 (0.74801 0.84009 0)
# Probe 530 (0.76704 0.48884 0)
# Probe 531 (0.84386 0.71835 0)
# Probe 532 (0.64988 0.6155 0)
# Probe 533 (0.68068 0.62881 0)
# Probe 534 (0.67696 0.59523 0)
# Probe 535 (0.90425 0.53264 0)
# Probe 536 (0.17838 0.76341 0)
# Probe 537 (0.14109 0.78869 0)
# Probe 538 (0.18223 0.80952 0)
# Probe 539 (0.144 0.83469 0)
# Probe 540 (0.18762 0.85766 0)
# Probe 541 (0.22447 0.83027 0)
# Probe 542 (0.82921 0.87739 0)
# Probe 543 (0.8702 0.85258 0)
# Probe 544 (0.22035 0.36145 0)
# Probe 545 (0.88479 0.73386 0)
# Probe 546 (0.87861 0.68942 0)
# Probe 547 (0.59762 0.37366 0)
# Probe 548 (0.58523 0.38147 0)
# Probe 549 (0.58818 0.3971 0)
# Probe 550 (0.57505 0.39196 0)
# Probe 551 (0.35716 0.27742 0)
# Probe 552 (0.45184 0.09895 0)
# Probe 553 (0.4262 0.08619 0)
# Probe 554 (0.23129 0.87803 0)
# Probe 555 (0.26663 0.8509 0)
# Probe 556 (0.27173 0.89614 0)
# Probe 557 (0.30821 0.87085 0)
# Probe 558 (0.11994 0.21727 0)
# Probe 559 (0.08586 0.23934 0)
# Probe 560 (0.64373 0.09002 0)
# Probe 561 (0.60737 0.04734 0)
# Probe 562 (0.40496 0.32796 0)
# Probe 563 (0.09889 0.72173 0)
# Probe 564 (0.4836 0.49431 0)
# Probe 565 (0.50445 0.50161 0)
# Probe 566 (0.52108 0.48624 0)
# Probe 567 (0.52614 0.50862 0)
# Probe 568 (0.50863 0.52505 0)
# Probe 569 (0.46508 0.48673 0)
# Probe 570 (0.5447 0.49221 0)
# Probe 571 (0.92006 0.70586 0)
# Probe 572 (0.75142 0.8817 0)
# Probe 573 (0.3534 0.25922 0)
# Probe 574 (0.20925 0.11321 0)
# Probe 575 (0.24498 0.12926 0)
# Probe 576 (0.13866 0.11808 0)
# Probe 577 (0.8943 0.49648 0)
# Probe 578 (0.19524 0.28185 0)
# Probe 579 (0.31752 0.91291 0)
# Probe 580 (0.34642 0.88222 0)
# Probe 581 (0.09731 0.67844 0)
# Probe 582 (0.56806 0.14722 0)
# Probe 583 (0.54925 0.14387 0)
# Probe 584 (0.54239 0.12984 0)
# Probe 585 (0.14389 0.88479 0)
# Probe 586 (0.47526 0.11068 0)
# Probe 587 (0.47763 0.1358 0)
# Probe 588 (0.49648 0.12231 0)
# Probe 589 (0.91237 0.57351 0)
# Probe 590 (0.88164 0.59971 0)
# Probe 591 (0.10613 0.81534 0)
# Probe 592 (0.41299 0.18098 0)
# Probe 593 (0.41179 0.19802 0)
# Probe 594 (0.39704 0.20897 0)
# Probe 595 (0.45926 0.14684 0)
# Probe 596 (0.58827 0.14799 0)
# Probe 597 (0.5779 0.16296 0)
# Probe 598 (0.59381 0.16368 0)
# Probe 599 (0.88682 0.78016 0)
# Probe 600 (0.6781 0.8457 0)
# Probe 601 (0.6841 0.8867 0)
# Probe 602 (0.79265 0.36125 0)
# Probe 603 (0.81424 0.34147 0)
# Probe 604 (0.80675 0.31143 0)
# Probe 605 (0.83686 0.3179 0)
# Probe 606 (0.82824 0.28495 0)
# Probe 607 (0.86199 0.29428 0)
# Probe 608 (0.85118 0.25862 0)
# Probe 609 (0.8876 0.268 0)
# Probe 610 (0.87702 0.23106 0)
# Probe 611 (0.83915 0.22252 0)
# Probe 612 (0.86381 0.19443 0)
# Probe 613 (0.82648 0.18575 0)
# Probe 614 (0.85162 0.15702 0)
# Probe 615 (0.81376 0.14854 0)
# Probe 616 (0.91671 0.2431 0)
# Probe 617 (0.84059 0.11833 0)
# Probe 618 (0.87945 0.13154 0)
# Probe 619 (0.80099 0.11126 0)
# Probe 620 (0.77357 0.14148 0)
# Probe 621 (0.76294 0.10522 0)
# Probe 622 (0.80179 0.21513 0)
# Probe 623 (0.89276 0.30051 0)
# Probe 624 (0.39452 0.26234 0)
# Probe 625 (0.39423 0.25006 0)
# Probe 626 (0.38224 0.24179 0)
# Probe 627 (0.39491 0.23593 0)
# Probe 628 (0.38399 0.22324 0)
# Probe 629 (0.33966 0.27047 0)
# Probe 630 (0.33771 0.24923 0)
# Probe 631 (0.10246 0.14256 0)
# Probe 632 (0.60857 0.89472 0)
# Probe 633 (0.5703 0.87702 0)
# Probe 634 (0.22234 0.32588 0)
# Probe 635 (0.34641 0.84416 0)
# Probe 636 (0.38802 0.87031 0)
# Probe 637 (0.49736 0.14008 0)
# Probe 638 (0.476 0.15572 0)
# Probe 639 (0.70706 0.60763 0)
# Probe 640 (0.70084 0.5771 0)
# Probe 641 (0.57144 0.37905 0)
# Probe 642 (0.56099 0.38733 0)
# Probe 643 (0.38054 0.20423 0)
# Probe 644 (0.53169 0.53196 0)
# Probe 645 (0.57173 0.92057 0)
# Probe 646 (0.53065 0.90221 0)
# Probe 647 (0.48902 0.92285 0)
# Probe 648 (0.49412 0.87974 0)
# Probe 649 (0.45352 0.89892 0)
# Probe 650 (0.82939 0.07942 0)
# Probe 651 (0.68824 0.23668 0)
# Probe 652 (0.67441 0.25877 0)
# Probe 653 (0.66841 0.22974 0)
# Probe 654 (0.61797 0.22366 0)
# Probe 655 (0.66336 0.21279 0)
# Probe 656 (0.65658 0.24986 0)
# Probe 657 (0.65031 0.22778 0)
# Probe 658 (0.64485 0.21038 0)
# Probe 659 (0.65605 0.19645 0)
# Probe 660 (0.63849 0.19454 0)
# Probe 661 (0.62998 0.20672 0)
# Probe 662 (0.62384 0.193 0)
# Probe 663 (0.63116 0.17949 0)
# Probe 664 (0.61438 0.17861 0)
# Probe 665 (0.40579 0.34424 0)
# Probe 666 (0.41659 0.33528 0)
# Probe 667 (0.41996 0.34908 0)
# Probe 668 (0.42193 0.36511 0)
# Probe 669 (0.43169 0.35687 0)
# Probe 670 (0.43458 0.36994 0)
# Probe 671 (0.42455 0.37887 0)
# Probe 672 (0.44427 0.36099 0)
# Probe 673 (0.44503 0.37265 0)
# Probe 674 (0.87241 0.90344 0)
# Probe 675 (0.63231 0.22208 0)
# Probe 676 (0.41578 0.39637 0)
# Probe 677 (0.70282 0.28989 0)
# Probe 678 (0.68925 0.30829 0)
# Probe 679 (0.69502 0.32987 0)
# Probe 680 (0.6763 0.3225 0)
# Probe 681 (0.67099 0.30459 0)
# Probe 682 (0.65633 0.31535 0)
# Probe 683 (0.66169 0.33293 0)
# Probe 684 (0.64555 0.32834 0)
# Probe 685 (0.65457 0.29896 0)
# Probe 686 (0.64951 0.34341 0)
# Probe 687 (0.63475 0.33895 0)
# Probe 688 (0.66592 0.2884 0)
# Probe 689 (0.6508 0.28457 0)
# Probe 690 (0.66543 0.35003 0)
# Probe 691 (0.63804 0.35321 0)
# Probe 692 (0.6244 0.34795 0)
# Probe 693 (0.62096 0.33465 0)
# Probe 694 (0.63191 0.32612 0)
# Probe 695 (0.63994 0.31575 0)
# Probe 696 (0.66146 0.2734 0)
# Probe 697 (0.64775 0.27173 0)
# Probe 698 (0.4515 0.41179 0)
# Probe 699 (0.46491 0.40135 0)
# Probe 700 (0.48022 0.40649 0)
# Probe 701 (0.47648 0.39189 0)
# Probe 702 (0.49045 0.39566 0)
# Probe 703 (0.46355 0.38703 0)
# Probe 704 (0.4742 0.37939 0)
# Probe 705 (0.49427 0.40903 0)
# Probe 706 (0.50408 0.39922 0)
# Probe 707 (0.51485 0.13483 0)
# Probe 708 (0.51512 0.11155 0)
# Probe 709 (0.398 0.29777 0)
# Probe 710 (0.40127 0.31289 0)
# Probe 711 (0.40056 0.28399 0)
# Probe 712 (0.32788 0.32496 0)
# Probe 713 (0.6396 0.15932 0)
# Probe 714 (0.72367 0.03751 0)
# Probe 715 (0.7039 0.07273 0)
# Probe 716 (0.42851 0.03319 0)
# Probe 717 (0.24115 0.08968 0)
# Probe 718 (0.27795 0.10657 0)
# Probe 719 (0.27665 0.06845 0)
# Probe 720 (0.31418 0.08579 0)
# Probe 721 (0.91342 0.66065 0)
# Probe 722 (0.60724 0.36483 0)
# Probe 723 (0.59525 0.36118 0)
# Probe 724 (0.09751 0.08922 0)
# Probe 725 (0.44856 0.94293 0)
# Probe 726 (0.44792 0.39427 0)
# Probe 727 (0.43946 0.51839 0)
# Probe 728 (0.43073 0.49337 0)
# Probe 729 (0.40935 0.48415 0)
# Probe 730 (0.38684 0.49669 0)
# Probe 731 (0.39224 0.46859 0)
# Probe 732 (0.41027 0.91546 0)
# Probe 733 (0.34168 0.40411 0)
# Probe 734 (0.34298 0.38118 0)
# Probe 735 (0.71371 0.33552 0)
# Probe 736 (0.69852 0.35555 0)
# Probe 737 (0.63964 0.29477 0)
# Probe 738 (0.42412 0.19043 0)
# Probe 739 (0.92137 0.44435 0)
# Probe 740 (0.94943 0.40691 0)
# Probe 741 (0.93305 0.36688 0)
# Probe 742 (0.67657 0.27657 0)
# Probe 743 (0.6224 0.60096 0)
# Probe 744 (0.32147 0.04205 0)
# Probe 745 (0.78874 0.1767 0)
# Probe 746 (0.69969 0.3829 0)
# Probe 747 (0.68168 0.37221 0)
# Probe 748 (0.0623 0.70066 0)
# Probe 749 (0.25832 0.80366 0)
# Probe 750 (0.94478 0.54462 0)
# Probe 751 (0.50757 0.41251 0)
# Probe 752 (0.51722 0.40242 0)
# Probe 753 (0.51351 0.38935 0)
# Probe 754 (0.52602 0.39303 0)
# Probe 755 (0.5305 0.40604 0)
# Probe 756 (0.53916 0.3964 0)
# Probe 757 (0.54426 0.40921 0)
# Probe 758 (0.49872 0.38654 0)
# Probe 759 (0.56635 0.48409 0)
# Probe 760 (0.58528 0.48923 0)
# Probe 761 (0.60306 0.47435 0)
# Probe 762 (0.81761 0.2502 0)
# Probe 763 (0.53285 0.14448 0)
# Probe 764 (0.22204 0.39777 0)
# Probe 765 (0.22509 0.43371 0)
# Probe 766 (0.25966 0.44772 0)
# Probe 767 (0.25836 0.4801 0)
# Probe 768 (0.63886 0.36963 0)
# Probe 769 (0.2419 0.62969 0)
# Probe 770 (0.27429 0.60754 0)
# Probe 771 (0.30933 0.62381 0)
# Probe 772 (0.27158 0.56878 0)
# Probe 773 (0.31973 0.66538 0)
# Probe 774 (0.34553 0.6378 0)
# Probe 775 (0.37999 0.65836 0)
# Probe 776 (0.30583 0.58697 0)
# Probe 777 (0.63574 0.23692 0)
# Probe 778 (0.05948 0.12433 0)
# Probe 779 (0.64828 0.45328 0)
# Probe 780 (0.6268 0.44968 0)
# Probe 781 (0.5372 0.37744 0)
# Probe 782 (0.4333 0.33482 0)
# Probe 783 (0.41801 0.30726 0)
# Probe 784 (0.42613 0.32746 0)
# Probe 785 (0.56089 0.37479 0)
# Probe 786 (0.60756 0.33467 0)
# Probe 787 (0.41176 0.26519 0)
# Probe 788 (0.62219 0.30669 0)
# Probe 789 (0.61296 0.32572 0)
# Probe 790 (0.23639 0.54978 0)
# Probe 791 (0.69403 0.70008 0)
# Probe 792 (0.5086 0.15078 0)
# Probe 793 (0.41279 0.2859 0)
# Probe 794 (0.29003 0.467 0)
# Probe 795 (0.41756 0.23336 0)
# Probe 796 (0.41316 0.2541 0)
# Probe 797 (0.83096 0.926 0)
# Probe 798 (0.91623 0.92409 0)
# Probe 799 (0.87123 0.64504 0)
# Probe 800 (0.48699 0.42315 0)
# Probe 801 (0.59424 0.65749 0)
# Probe 802 (0.56445 0.67705 0)
# Probe 803 (0.56293 0.71352 0)
# Probe 804 (0.53292 0.69426 0)
# Probe 805 (0.53322 0.65875 0)
# Probe 806 (0.50091 0.66664 0)
# Probe 807 (0.47379 0.64437 0)
# Probe 808 (0.4668 0.67863 0)
# Probe 809 (0.44074 0.65345 0)
# Probe 810 (0.44755 0.61634 0)
# Probe 811 (0.62775 0.26482 0)
# Probe 812 (0.17452 0.04674 0)
# Probe 813 (0.6234 0.23327 0)
# Probe 814 (0.63677 0.24976 0)
# Probe 815 (0.61287 0.21437 0)
# Probe 816 (0.52422 0.73006 0)
# Probe 817 (0.62832 0.28626 0)
# Probe 818 (0.33831 0.60212 0)
# Probe 819 (0.37157 0.61494 0)
# Probe 820 (0.4048 0.63102 0)
# Probe 821 (0.23898 0.50812 0)
# Probe 822 (0.27258 0.53381 0)
# Probe 823 (0.43312 0.20556 0)
# Probe 824 (0.42161 0.22337 0)
# Probe 825 (0.41112 0.22532 0)
# Probe 826 (0.41272 0.21371 0)
# Probe 827 (0.58265 0.42044 0)
# Probe 828 (0.60102 0.42145 0)
# Probe 829 (0.59302 0.18947 0)
# Probe 830 (0.57638 0.17641 0)
# Probe 831 (0.47369 0.17088 0)
# Probe 832 (0.46221 0.16326 0)
# Probe 833 (0.45106 0.17034 0)
# Probe 834 (0.45438 0.18251 0)
# Probe 835 (0.44247 0.17804 0)
# Probe 836 (0.77214 0.52224 0)
# Probe 837 (0.7467 0.54262 0)
# Probe 838 (0.73778 0.50721 0)
# Probe 839 (0.75195 0.57521 0)
# Probe 840 (0.71716 0.53106 0)
# Probe 841 (0.22292 0.26093 0)
# Probe 842 (0.95892 0.2697 0)
# Probe 843 (0.60046 0.19708 0)
# Probe 844 (0.38861 0.70922 0)
# Probe 845 (0.42271 0.68704 0)
# Probe 846 (0.7121 0.64141 0)
# Probe 847 (0.56697 0.17117 0)
# Probe 848 (0.54645 0.16471 0)
# Probe 849 (0.04268 0.37373 0)
# Probe 850 (0.08864 0.34991 0)
# Probe 851 (0.08147 0.38972 0)
# Probe 852 (0.05027 0.42256 0)
# Probe 853 (0.08953 0.45549 0)
# Probe 854 (0.09003 0.49081 0)
# Probe 855 (0.05293 0.52283 0)
# Probe 856 (0.04521 0.57533 0)
# Probe 857 (0.08482 0.59958 0)
# Probe 858 (0.08919 0.55325 0)
# Probe 859 (0.08425 0.30541 0)
# Probe 860 (0.05007 0.27403 0)
# Probe 861 (0.12295 0.47383 0)
# Probe 862 (0.59697 0.73053 0)
# Probe 863 (0.5041 0.16279 0)
# Probe 864 (0.31341 0.12319 0)
# Probe 865 (0.34921 0.10759 0)
# Probe 866 (0.83542 0.67782 0)
# Probe 867 (0.51494 0.16105 0)
# Probe 868 (0.53418 0.16009 0)
# Probe 869 (0.7633 0.45567 0)
# Probe 870 (0.15498 0.32598 0)
# Probe 871 (0.48368 0.16691 0)
# Probe 872 (0.61194 0.3448 0)
# Probe 873 (0.67398 0.55872 0)
# Probe 874 (0.27425 0.94496 0)
# Probe 875 (0.48349 0.37204 0)
# Probe 876 (0.67503 0.96034 0)
# Probe 877 (0.60688 0.44151 0)
# Probe 878 (0.59204 0.6214 0)
# Probe 879 (0.73651 0.13016 0)
# Probe 880 (0.54161 0.10912 0)
# Probe 881 (0.12761 0.34634 0)
# Probe 882 (0.7261 0.96102 0)
# Probe 883 (0.46409 0.37449 0)
# Probe 884 (0.55235 0.39806 0)
# Probe 885 (0.48627 0.38347 0)
# Probe 886 (0.44744 0.34991 0)
# Probe 887 (0.95687 0.12627 0)
# Probe 888 (0.53621 0.47198 0)
# Probe 889 (0.24463 0.16844 0)
# Probe 890 (0.95761 0.67892 0)
# Probe 891 (0.67112 0.43953 0)
# Probe 892 (0.67771 0.19466 0)
# Probe 893 (0.34506 0.31359 0)
# Probe 894 (0.17546 0.95924 0)
# Probe 895 (0.03673 0.82315 0)
# Probe 896 (0.9574 0.82781 0)
# Probe 897 (0.59781 0.17694 0)
# Probe 898 (0.91559 0.84645 0)
# Probe 899 (0.04217 0.92479 0)
# Probe 900 (0.08491 0.89633 0)
# Probe 901 (0.04458 0.22025 0)
# Probe 902 (0.51986 0.41795 0)
# Probe 903 (0.45525 0.35699 0)
# Probe 904 (0.36526 0.58175 0)
# Probe 905 (0.19318 0.9114 0)
# Probe 906 (0.64923 0.17936 0)
# Probe 907 (0.51501 0.37818 0)
# Probe 908 (0.74368 0.79678 0)
# Probe 909 (0.64769 0.5812 0)
# Probe 910 (0.95604 0.22329 0)
# Probe 911 (0.08749 0.18541 0)
# Probe 912 (0.73983 0.47289 0)
# Probe 913 (0.48865 0.54159 0)
# Probe 914 (0.63279 0.41798 0)
# Probe 915 (0.47622 0.07974 0)
# Probe 916 (0.6493 0.91836 0)
# Probe 917 (0.56532 0.16058 0)
# Probe 918 (0.78839 0.90416 0)
# Probe 919 (0.58622 0.36813 0)
# Probe 920 (0.80303 0.70509 0)
# Probe 921 (0.70487 0.12489 0)
# Probe 922 (0.72482 0.10081 0)
# Probe 923 (0.10379 0.76692 0)
# Probe 924 (0.56983 0.83413 0)
# Probe 925 (0.67318 0.80396 0)
# Probe 926 (0.13572 0.65659 0)
# Probe 927 (0.58487 0.35715 0)
# Probe 928 (0.27351 0.41906 0)
# Probe 929 (0.42728 0.80356 0)
# Probe 930 (0.42575 0.84296 0)
# Probe 931 (0.85554 0.80603 0)
# Probe 932 (0.60186 0.40329 0)
# Probe 933 (0.12973 0.57482 0)
# Probe 934 (0.51354 0.54969 0)
# Probe 935 (0.2136 0.73844 0)
# Probe 936 (0.21788 0.78342 0)
# Probe 937 (0.68559 0.66348 0)
# Probe 938 (0.33215 0.95598 0)
# Probe 939 (0.90691 0.2004 0)
# Probe 940 (0.91699 0.15015 0)
# Probe 941 (0.51482 0.46664 0)
# Probe 942 (0.30349 0.55115 0)
# Probe 943 (0.6833 0.34405 0)
# Probe 944 (0.68627 0.52537 0)
# Probe 945 (0.47338 0.36827 0)
# Probe 946 (0.48724 0.51674 0)
# Probe 947 (0.26756 0.36585 0)
# Probe 948 (0.91187 0.10689 0)
# Probe 949 (0.92243 0.03892 0)
# Probe 950 (0.846 0.58233 0)
# Probe 951 (0.07575 0.04106 0)
# Probe 952 (0.59438 0.45535 0)
# Probe 953 (0.63857 0.2806 0)
# Probe 954 (0.07939 0.95247 0)
# Probe 955 (0.85751 0.48741 0)
# Probe 956 (0.15085 0.19694 0)
# Probe 957 (0.41012 0.37545 0)
# Probe 958 (0.36373 0.39409 0)
# Probe 959 (0.77185 0.2043 0)
# Probe 960 (0.87207 0.33009 0)
# Probe 961 (0.89259 0.36542 0)
# Probe 962 (0.36383 0.357 0)
# Probe 963 (0.73738 0.44333 0)
# Probe 964 (0.36837 0.25005 0)
# Probe 965 (0.27857 0.14286 0)
# Probe 966 (0.43843 0.38192 0)
# Probe 967 (0.84929 0.45447 0)
# Probe 968 (0.7454 0.07189 0)
# Probe 969 (0.44665 0.18954 0)
# Probe 970 (0.65259 0.3587 0)