# Probe 0 (0 0 0)
# Probe 1 (1 0 0)
# Probe 2 (1 1 0)
# Probe 3 (0 1 0)
# Probe 4 (0.52 0.34 0)
# Probe 5 (0.42 0.24 0)
# Probe 6 (0.32 0.34 0)
# Probe 7 (0.42 0.44 0)
# Probe 8 (0.05 0 0)
# Probe 9 (0.1 0 0)
# Probe 10 (0.15 0 0)
# Probe 11 (0.2 0 0)
# Probe 12 (0.25 0 0)
# Probe 13 (0.3 0 0)
# Probe 14 (0.35 0 0)
# Probe 15 (0.4 0 0)
# Probe 16 (0.45 0 0)
# Probe 17 (0.5 0 0)
# Probe 18 (0.55 0 0)
# Probe 19 (0.6 0 0)
# Probe 20 (0.65 0 0)
# Probe 21 (0.7 0 0)
# Probe 22 (0.75 0 0)
# Probe 23 (0.8 0 0)
# Probe 24 (0.85 0 0)
# Probe 25 (0.9 0 0)
# Probe 26 (0.95 0 0)
# Probe 27 (1 0.05 0)
# Probe 28 (1 0.1 0)
# Probe 29 (1 0.15 0)
# Probe 30 (1 0.2 0)
# Probe 31 (1 0.25 0)
# Probe 32 (1 0.3 0)
# Probe 33 (1 0.35 0)
# Probe 34 (1 0.4 0)
# Probe 35 (1 0.45 0)
# Probe 36 (1 0.5 0)
# Probe 37 (1 0.55 0)
# Probe 38 (1 0.6 0)
# Probe 39 (1 0.65 0)
# Probe 40 (1 0.7 0)
# Probe 41 (1 0.75 0)
# Probe 42 (1 0.8 0)
# Probe 43 (1 0.85 0)
# Probe 44 (1 0.9 0)
# Probe 45 (1 0.95 0)
# Probe 46 (0.95 1 0)
# Probe 47 (0.9 1 0)
# Probe 48 (0.85 1 0)
# Probe 49 (0.8 1 0)
# Probe 50 (0.75 1 0)
# Probe 51 (0.7 1 0)
# Probe 52 (0.65 1 0)
# Probe 53 (0.6 1 0)
# Probe 54 (0.55 1 0)
# Probe 55 (0.5 1 0)
# Probe 56 (0.45 1 0)
# Probe 57 (0.4 1 0)
# Probe 58 (0.35 1 0)
# Probe 59 (0.3 1 0)
# Probe 60 (0.25 1 0)
# Probe 61 (0.2 1 0)
# Probe 62 (0.15 1 0)
# Probe 63 (0.1 1 0)
# Probe 64 (0.05 1 0)
# Probe 65 (0 0.95 0)
# Probe 66 (0 0.9 0)
# Probe 67 (0 0.85 0)
# Probe 68 (0 0.8 0)
# Probe 69 (0 0.75 0)
# Probe 70 (0 0.7 0)
# Probe 71 (0 0.65 0)
# Probe 72 (0 0.6 0)
# Probe 73 (0 0.55 0)
# Probe 74 (0 0.5 0)
# Probe 75 (0 0.45 0)
# Probe 76 (0 0.4 0)
# Probe 77 (0 0.35 0)
# Probe 78 (0 0.3 0)
# Probe 79 (0 0.25 0)
# Probe 80 (0 0.2 0)
# Probe 81 (0 0.15 0)
# Probe 82 (0 0.1 0)
# Probe 83 (0 0.05 0)
# Probe 84 (0.51952 0.3302 0)
# Probe 85 (0.51808 0.32049 0)
# Probe 86 (0.51569 0.31097 0)
# Probe 87 (0.51239 0.30173 0)
# Probe 88 (0.50819 0.29286 0)
# Probe 89 (0.50315 0.28444 0)
# Probe 90 (0.4973 0.27656 0)
# Probe 91 (0.49071 0.26929 0)
# Probe 92 (0.48344 0.2627 0)
# Probe 93 (0.47556 0.25685 0)
# Probe 94 (0.46714 0.25181 0)
# Probe 95 (0.45827 0.24761 0)
# Probe 96 (0.44903 0.24431 0)
# Probe 97 (0.43951 0.24192 0)
# Probe 98 (0.4298 0.24048 0)
# Probe 99 (0.4102 0.24048 0)
# Probe 100 (0.40049 0.24192 0)
# Probe 101 (0.39097 0.24431 0)
# Probe 102 (0.38173 0.24761 0)
# Probe 103 (0.37286 0.25181 0)
# Probe 104 (0.36444 0.25685 0)
# Probe 105 (0.35656 0.2627 0)
# Probe 106 (0.34929 0.26929 0)
# Probe 107 (0.3427 0.27656 0)
# Probe 108 (0.33685 0.28444 0)
# Probe 109 (0.33181 0.29286 0)
# Probe 110 (0.32761 0.30173 0)
# Probe 111 (0.32431 0.31097 0)
# Probe 112 (0.32192 0.32049 0)
# Probe 113 (0.32048 0.3302 0)
# Probe 114 (0.32048 0.3498 0)
# Probe 115 (0.32192 0.35951 0)
# Probe 116 (0.32431 0.36903 0)
# Probe 117 (0.32761 0.37827 0)
# Probe 118 (0.33181 0.38714 0)
# Probe 119 (0.33685 0.39556 0)
# Probe 120 (0.3427 0.40344 0)
# Probe 121 (0.34929 0.41071 0)
# Probe 122 (0.35656 0.4173 0)
# Probe 123 (0.36444 0.42315 0)
# Probe 124 (0.37286 0.42819 0)
# Probe 125 (0.38173 0.43239 0)
# Probe 126 (0.39097 0.43569 0)
# Probe 127 (0.40049 0.43808 0)
# Probe 128 (0.4102 0.43952 0)
# Probe 129 (0.4298 0.43952 0)
# Probe 130 (0.43951 0.43808 0)
# Probe 131 (0.44903 0.43569 0)
# Probe 132 (0.45827 0.43239 0)
# Probe 133 (0.46714 0.42819 0)
# Probe 134 (0.47556 0.42315 0)
# Probe 135 (0.48344 0.4173 0)
# Probe 136 (0.49071 0.41071 0)
# Probe 137 (0.4973 0.40344 0)
# Probe 138 (0.50315 0.39556 0)
# Probe 139 (0.50819 0.38714 0)
# Probe 140 (0.51239 0.37827 0)
# Probe 141 (0.51569 0.36903 0)
# Probe 142 (0.51808 0.35951 0)
# Probe 143 (0.51952 0.3498 0)
# Probe 144 (0.675 0.9567 0)
# Probe 145 (0.95753 0.63232 0)
# Probe 146 (0.33044 0.95902 0)
# Probe 147 (0.04245 0.67774 0)
# Probe 148 (0.95458 0.47215 0)
# Probe 149 (0.95952 0.27984 0)
# Probe 150 (0.725 0.0433 0)
# Probe 151 (0.47356 0.95967 0)
# Probe 152 (0.04299 0.52029 0)
# Probe 153 (0.42547 0.23182 0)
# Probe 154 (0.03739 0.22104 0)
# Probe 155 (0.22705 0.04192 0)
# Probe 156 (0.03215 0.38359 0)
# Probe 157 (0.9567 0.775 0)
# Probe 158 (0.57243 0.04192 0)
# Probe 159 (0.45534 0.23784 0)
# Probe 160 (0.3184 0.04255 0)
# Probe 161 (0.39374 0.23473 0)
# Probe 162 (0.04175 0.82308 0)
# Probe 163 (0.47935 0.04247 0)
# Probe 164 (0.8204 0.95861 0)
# Probe 165 (0.17182 0.95957 0)
# Probe 166 (0.82006 0.0429 0)
# Probe 167 (0.95724 0.37484 0)
# Probe 168 (0.95319 0.17079 0)
# Probe 169 (0.57559 0.95477 0)
# Probe 170 (0.04109 0.11949 0)
# Probe 171 (0.95984 0.87655 0)
# Probe 172 (0.12651 0.04785 0)
# Probe 173 (0.03941 0.92709 0)
# Probe 174 (0.92261 0.04199 0)
# Probe 175 (0.925 0.9567 0)
# Probe 176 (0.52575 0.04749 0)
# Probe 177 (0.55326 0.08073 0)
# Probe 178 (0.58901 0.0814 0)
# Probe 179 (0.5674 0.11588 0)
# Probe 180 (0.49517 0.25953 0)
# Probe 181 (0.53391 0.11229 0)
# Probe 182 (0.60312 0.11522 0)
# Probe 183 (0.58768 0.14325 0)
# Probe 184 (0.61903 0.14402 0)
# Probe 185 (0.6025 0.16929 0)
# Probe 186 (0.63268 0.17126 0)
# Probe 187 (0.51333 0.28432 0)
# Probe 188 (0.61603 0.19726 0)
# Probe 189 (0.64523 0.19812 0)
# Probe 190 (0.63187 0.22313 0)
# Probe 191 (0.65847 0.22356 0)
# Probe 192 (0.6442 0.24756 0)
# Probe 193 (0.52747 0.32367 0)
# Probe 194 (0.67082 0.24871 0)
# Probe 195 (0.65672 0.27225 0)
# Probe 196 (0.68363 0.27329 0)
# Probe 197 (0.66874 0.29661 0)
# Probe 198 (0.69618 0.29794 0)
# Probe 199 (0.68109 0.32141 0)
# Probe 200 (0.70852 0.32281 0)
# Probe 201 (0.69303 0.34591 0)
# Probe 202 (0.69449 0.25124 0)
# Probe 203 (0.66631 0.3435 0)
# Probe 204 (0.67758 0.3677 0)
# Probe 205 (0.52529 0.36558 0)
# Probe 206 (0.70649 0.37325 0)
# Probe 207 (0.68807 0.39345 0)
# Probe 208 (0.66196 0.38855 0)
# Probe 209 (0.67238 0.41384 0)
# Probe 210 (0.69488 0.41413 0)
# Probe 211 (0.68973 0.43768 0)
# Probe 212 (0.65618 0.43521 0)
# Probe 213 (0.66627 0.4613 0)
# Probe 214 (0.50705 0.40456 0)
# Probe 215 (0.6959 0.46733 0)
# Probe 216 (0.67616 0.48807 0)
# Probe 217 (0.64803 0.48302 0)
# Probe 218 (0.65772 0.50954 0)
# Probe 219 (0.63044 0.50465 0)
# Probe 220 (0.63957 0.53103 0)
# Probe 221 (0.61232 0.52726 0)
# Probe 222 (0.62192 0.55306 0)
# Probe 223 (0.59442 0.54914 0)
# Probe 224 (0.60436 0.57512 0)
# Probe 225 (0.57793 0.57005 0)
# Probe 226 (0.46645 0.43804 0)
# Probe 227 (0.63292 0.57837 0)
# Probe 228 (0.58638 0.59681 0)
# Probe 229 (0.56216 0.59021 0)
# Probe 230 (0.56906 0.61883 0)
# Probe 231 (0.54011 0.60836 0)
# Probe 232 (0.55007 0.64089 0)
# Probe 233 (0.52101 0.63551 0)
# Probe 234 (0.57973 0.64679 0)
# Probe 235 (0.68182 0.51814 0)
# Probe 236 (0.51017 0.60783 0)
# Probe 237 (0.49215 0.63095 0)
# Probe 238 (0.4359 0.44721 0)
# Probe 239 (0.48151 0.6034 0)
# Probe 240 (0.46372 0.62592 0)
# Probe 241 (0.45335 0.59919 0)
# Probe 242 (0.43524 0.62139 0)
# Probe 243 (0.42488 0.59435 0)
# Probe 244 (0.40755 0.61623 0)
# Probe 245 (0.40504 0.44698 0)
# Probe 246 (0.39759 0.58985 0)
# Probe 247 (0.38092 0.61248 0)
# Probe 248 (0.37021 0.58108 0)
# Probe 249 (0.37253 0.43871 0)
# Probe 250 (0.41666 0.64472 0)
# Probe 251 (0.3515 0.60764 0)
# Probe 252 (0.34006 0.57887 0)
# Probe 253 (0.50226 0.65957 0)
# Probe 254 (0.31954 0.60128 0)
# Probe 255 (0.30986 0.56928 0)
# Probe 256 (0.33502 0.63268 0)
# Probe 257 (0.29101 0.59649 0)
# Probe 258 (0.27868 0.56576 0)
# Probe 259 (0.34722 0.4203 0)
# Probe 260 (0.57036 0.54526 0)
# Probe 261 (0.47054 0.57766 0)
# Probe 262 (0.48588 0.42797 0)
# Probe 263 (0.51839 0.38715 0)
# Probe 264 (0.52813 0.34488 0)
# Probe 265 (0.52188 0.30329 0)
# Probe 266 (0.2596 0.59219 0)
# Probe 267 (0.24828 0.56114 0)
# Probe 268 (0.26759 0.53681 0)
# Probe 269 (0.23957 0.5313 0)
# Probe 270 (0.25802 0.50948 0)
# Probe 271 (0.3266 0.39499 0)
# Probe 272 (0.23032 0.5034 0)
# Probe 273 (0.24819 0.48239 0)
# Probe 274 (0.22031 0.47648 0)
# Probe 275 (0.23811 0.45616 0)
# Probe 276 (0.64437 0.29655 0)
# Probe 277 (0.41598 0.56744 0)
# Probe 278 (0.57554 0.16851 0)
# Probe 279 (0.28437 0.51381 0)
# Probe 280 (0.21135 0.45014 0)
# Probe 281 (0.23273 0.42789 0)
# Probe 282 (0.31268 0.35585 0)
# Probe 283 (0.31695 0.37657 0)
# Probe 284 (0.35504 0.56153 0)
# Probe 285 (0.61635 0.24845 0)
# Probe 286 (0.22744 0.58665 0)
# Probe 287 (0.23934 0.619 0)
# Probe 288 (0.20287 0.42392 0)
# Probe 289 (0.22036 0.40342 0)
# Probe 290 (0.19348 0.3983 0)
# Probe 291 (0.21099 0.37896 0)
# Probe 292 (0.18454 0.37257 0)
# Probe 293 (0.20531 0.35235 0)
# Probe 294 (0.31167 0.32194 0)
# Probe 295 (0.17546 0.34634 0)
# Probe 296 (0.19419 0.32564 0)
# Probe 297 (0.33274 0.27504 0)
# Probe 298 (0.34779 0.25878 0)
# Probe 299 (0.32044 0.29364 0)
# Probe 300 (0.36447 0.24667 0)
# Probe 301 (0.60309 0.50116 0)
# Probe 302 (0.66386 0.16658 0)
# Probe 303 (0.17855 0.41837 0)
# Probe 304 (0.26418 0.46402 0)
# Probe 305 (0.21729 0.32754 0)
# Probe 306 (0.21075 0.30344 0)
# Probe 307 (0.18508 0.29831 0)
# Probe 308 (0.20479 0.27851 0)
# Probe 309 (0.20231 0.49704 0)
# Probe 310 (0.20442 0.61302 0)
# Probe 311 (0.21668 0.64638 0)
# Probe 312 (0.22824 0.28256 0)
# Probe 313 (0.22322 0.25784 0)
# Probe 314 (0.19406 0.24834 0)
# Probe 315 (0.21816 0.23048 0)
# Probe 316 (0.24603 0.24082 0)
# Probe 317 (0.23936 0.21174 0)
# Probe 318 (0.26868 0.21984 0)
# Probe 319 (0.21443 0.20095 0)
# Probe 320 (0.25998 0.193 0)
# Probe 321 (0.28752 0.19846 0)
# Probe 322 (0.56017 0.67081 0)
# Probe 323 (0.59144 0.67617 0)
# Probe 324 (0.57077 0.70142 0)
# Probe 325 (0.6039 0.70732 0)
# Probe 326 (0.58208 0.73399 0)
# Probe 327 (0.6167 0.73982 0)
# Probe 328 (0.63884 0.71217 0)
# Probe 329 (0.65248 0.74584 0)
# Probe 330 (0.67577 0.71664 0)
# Probe 331 (0.6897 0.75188 0)
# Probe 332 (0.71376 0.72154 0)
# Probe 333 (0.72839 0.75824 0)
# Probe 334 (0.75306 0.72683 0)
# Probe 335 (0.73855 0.6897 0)
# Probe 336 (0.7683 0.76468 0)
# Probe 337 (0.59442 0.76788 0)
# Probe 338 (0.55833 0.76139 0)
# Probe 339 (0.77778 0.69501 0)
# Probe 340 (0.76297 0.65767 0)
# Probe 341 (0.66651 0.78004 0)
# Probe 342 (0.7425 0.79709 0)
# Probe 343 (0.23451 0.38427 0)
# Probe 344 (0.28014 0.17323 0)
# Probe 345 (0.30702 0.18153 0)
# Probe 346 (0.57104 0.7968 0)
# Probe 347 (0.53338 0.78985 0)
# Probe 348 (0.78408 0.8044 0)
# Probe 349 (0.72453 0.29898 0)
# Probe 350 (0.73808 0.32538 0)
# Probe 351 (0.75536 0.29888 0)
# Probe 352 (0.76959 0.32923 0)
# Probe 353 (0.7884 0.30084 0)
# Probe 354 (0.80377 0.33135 0)
# Probe 355 (0.78387 0.36004 0)
# Probe 356 (0.77249 0.27072 0)
# Probe 357 (0.80777 0.27181 0)
# Probe 358 (0.79028 0.23931 0)
# Probe 359 (0.81928 0.36293 0)
# Probe 360 (0.79859 0.39311 0)
# Probe 361 (0.80201 0.66305 0)
# Probe 362 (0.78662 0.62639 0)
# Probe 363 (0.15543 0.36816 0)
# Probe 364 (0.14509 0.33886 0)
# Probe 365 (0.83529 0.39568 0)
# Probe 366 (0.81394 0.4271 0)
# Probe 367 (0.81831 0.70095 0)
# Probe 368 (0.27072 0.24221 0)
# Probe 369 (0.7482 0.62109 0)
# Probe 370 (0.77141 0.5907 0)
# Probe 371 (0.8099 0.59508 0)
# Probe 372 (0.79434 0.55956 0)
# Probe 373 (0.8328 0.56362 0)
# Probe 374 (0.17734 0.64001 0)
# Probe 375 (0.19267 0.6748 0)
# Probe 376 (0.2304 0.68091 0)
# Probe 377 (0.20676 0.71068 0)
# Probe 378 (0.24586 0.71633 0)
# Probe 379 (0.22055 0.74747 0)
# Probe 380 (0.26103 0.75308 0)
# Probe 381 (0.23492 0.78519 0)
# Probe 382 (0.27531 0.79087 0)
# Probe 383 (0.30017 0.75874 0)
# Probe 384 (0.31533 0.79629 0)
# Probe 385 (0.3407 0.7639 0)
# Probe 386 (0.35505 0.80153 0)
# Probe 387 (0.37978 0.77026 0)
# Probe 388 (0.39449 0.80702 0)
# Probe 389 (0.18172 0.74145 0)
# Probe 390 (0.16999 0.60407 0)
# Probe 391 (0.24954 0.8237 0)
# Probe 392 (0.20763 0.81764 0)
# Probe 393 (0.82812 0.24088 0)
# Probe 394 (0.8102 0.20725 0)
# Probe 395 (0.25225 0.16471 0)
# Probe 396 (0.7569 0.83791 0)
# Probe 397 (0.54617 0.82638 0)
# Probe 398 (0.58532 0.83346 0)
# Probe 399 (0.30289 0.15248 0)
# Probe 400 (0.32776 0.1629 0)
# Probe 401 (0.65739 0.68523 0)
# Probe 402 (0.33324 0.18861 0)
# Probe 403 (0.35106 0.17164 0)
# Probe 404 (0.34813 0.14564 0)
# Probe 405 (0.37341 0.15866 0)
# Probe 406 (0.36899 0.12692 0)
# Probe 407 (0.39526 0.13807 0)
# Probe 408 (0.40025 0.16479 0)
# Probe 409 (0.42005 0.14849 0)
# Probe 410 (0.42327 0.17296 0)
# Probe 411 (0.44272 0.15841 0)
# Probe 412 (0.44427 0.18393 0)
# Probe 413 (0.46333 0.16833 0)
# Probe 414 (0.4661 0.1895 0)
# Probe 415 (0.4833 0.17685 0)
# Probe 416 (0.48535 0.19684 0)
# Probe 417 (0.47591 0.24677 0)
# Probe 418 (0.46426 0.14069 0)
# Probe 419 (0.83958 0.33229 0)
# Probe 420 (0.77167 0.2061 0)
# Probe 421 (0.79168 0.17328 0)
# Probe 422 (0.41907 0.77587 0)
# Probe 423 (0.50272 0.18448 0)
# Probe 424 (0.50364 0.20717 0)
# Probe 425 (0.83008 0.17648 0)
# Probe 426 (0.43378 0.81225 0)
# Probe 427 (0.40926 0.84471 0)
# Probe 428 (0.52057 0.7501 0)
# Probe 429 (0.63897 0.11538 0)
# Probe 430 (0.36733 0.73341 0)
# Probe 431 (0.4488 0.84909 0)
# Probe 432 (0.35444 0.19558 0)
# Probe 433 (0.33963 0.21005 0)
# Probe 434 (0.39135 0.10831 0)
# Probe 435 (0.33084 0.83384 0)
# Probe 436 (0.85121 0.43071 0)
# Probe 437 (0.40521 0.18725 0)
# Probe 438 (0.84377 0.66778 0)
# Probe 439 (0.80048 0.84505 0)
# Probe 440 (0.82845 0.81014 0)
# Probe 441 (0.15324 0.6714 0)
# Probe 442 (0.75257 0.17236 0)
# Probe 443 (0.77298 0.13882 0)
# Probe 444 (0.73304 0.13806 0)
# Probe 445 (0.81723 0.52871 0)
# Probe 446 (0.77129 0.52488 0)
# Probe 447 (0.85705 0.53247 0)
# Probe 448 (0.86012 0.7068 0)
# Probe 449 (0.73408 0.58651 0)
# Probe 450 (0.84562 0.85251 0)
# Probe 451 (0.71189 0.61527 0)
# Probe 452 (0.52185 0.19259 0)
# Probe 453 (0.52357 0.21275 0)
# Probe 454 (0.5098 0.22513 0)
# Probe 455 (0.52525 0.23449 0)
# Probe 456 (0.54096 0.22107 0)
# Probe 457 (0.54317 0.24013 0)
# Probe 458 (0.5585 0.22854 0)
# Probe 459 (0.55972 0.24726 0)
# Probe 460 (0.54522 0.25786 0)
# Probe 461 (0.56072 0.26529 0)
# Probe 462 (0.54555 0.27705 0)
# Probe 463 (0.56144 0.28308 0)
# Probe 464 (0.57617 0.27303 0)
# Probe 465 (0.57665 0.29057 0)
# Probe 466 (0.56227 0.29975 0)
# Probe 467 (0.57667 0.30752 0)
# Probe 468 (0.56267 0.31576 0)
# Probe 469 (0.57671 0.32379 0)
# Probe 470 (0.56254 0.33116 0)
# Probe 471 (0.57642 0.33985 0)
# Probe 472 (0.59095 0.33116 0)
# Probe 473 (0.59068 0.34872 0)
# Probe 474 (0.5756 0.35599 0)
# Probe 475 (0.59013 0.36595 0)
# Probe 476 (0.57249 0.37317 0)
# Probe 477 (0.58957 0.38346 0)
# Probe 478 (0.57447 0.3916 0)
# Probe 479 (0.58964 0.40134 0)
# Probe 480 (0.57422 0.40977 0)
# Probe 481 (0.58968 0.41957 0)
# Probe 482 (0.57346 0.42806 0)
# Probe 483 (0.55864 0.41841 0)
# Probe 484 (0.5576 0.43601 0)
# Probe 485 (0.54363 0.42655 0)
# Probe 486 (0.54233 0.4435 0)
# Probe 487 (0.55643 0.45337 0)
# Probe 488 (0.54073 0.4611 0)
# Probe 489 (0.52658 0.45153 0)
# Probe 490 (0.52427 0.46859 0)
# Probe 491 (0.53933 0.47915 0)
# Probe 492 (0.52242 0.48635 0)
# Probe 493 (0.50768 0.47566 0)
# Probe 494 (0.50556 0.4933 0)
# Probe 495 (0.49158 0.48244 0)
# Probe 496 (0.48894 0.49992 0)
# Probe 497 (0.47525 0.48923 0)
# Probe 498 (0.50272 0.51215 0)
# Probe 499 (0.47271 0.50678 0)
# Probe 500 (0.4597 0.49639 0)
# Probe 501 (0.45625 0.51338 0)
# Probe 502 (0.44272 0.50014 0)
# Probe 503 (0.5905 0.43886 0)
# Probe 504 (0.46143 0.47867 0)
# Probe 505 (0.60701 0.36103 0)
# Probe 506 (0.5605 0.38262 0)
# Probe 507 (0.49371 0.46581 0)
# Probe 508 (0.54447 0.41027 0)
# Probe 509 (0.60622 0.41005 0)
# Probe 510 (0.46993 0.52332 0)
# Probe 511 (0.53759 0.49807 0)
# Probe 512 (0.59256 0.28129 0)
# Probe 513 (0.43947 0.52063 0)
# Probe 514 (0.4251 0.50892 0)
# Probe 515 (0.42631 0.49061 0)
# Probe 516 (0.41017 0.49748 0)
# Probe 517 (0.40767 0.51601 0)
# Probe 518 (0.39381 0.50371 0)
# Probe 519 (0.39655 0.48634 0)
# Probe 520 (0.38064 0.49185 0)
# Probe 521 (0.38379 0.47537 0)
# Probe 522 (0.36765 0.48012 0)
# Probe 523 (0.36413 0.49759 0)
# Probe 524 (0.35124 0.48536 0)
# Probe 525 (0.34637 0.50359 0)
# Probe 526 (0.35505 0.46829 0)
# Probe 527 (0.339 0.47293 0)
# Probe 528 (0.34312 0.45646 0)
# Probe 529 (0.3269 0.46108 0)
# Probe 530 (0.77783 0.42321 0)
# Probe 531 (0.45159 0.2027 0)
# Probe 532 (0.22301 0.85804 0)
# Probe 533 (0.17905 0.85159 0)
# Probe 534 (0.26745 0.68462 0)
# Probe 535 (0.33128 0.44444 0)
# Probe 536 (0.31504 0.44933 0)
# Probe 537 (0.31888 0.43319 0)
# Probe 538 (0.30362 0.43726 0)
# Probe 539 (0.30718 0.42144 0)
# Probe 540 (0.29151 0.42566 0)
# Probe 541 (0.29551 0.40964 0)
# Probe 542 (0.27852 0.41403 0)
# Probe 543 (0.28336 0.39737 0)
# Probe 544 (0.30981 0.46558 0)
# Probe 545 (0.51972 0.17087 0)
# Probe 546 (0.87359 0.56795 0)
# Probe 547 (0.42451 0.88307 0)
# Probe 548 (0.7723 0.87921 0)
# Probe 549 (0.72929 0.87368 0)
# Probe 550 (0.55577 0.48999 0)
# Probe 551 (0.34112 0.11645 0)
# Probe 552 (0.55914 0.86459 0)
# Probe 553 (0.59991 0.87167 0)
# Probe 554 (0.52896 0.41841 0)
# Probe 555 (0.69883 0.58186 0)
# Probe 556 (0.12357 0.36316 0)
# Probe 557 (0.11215 0.33069 0)
# Probe 558 (0.39046 0.52264 0)
# Probe 559 (0.35997 0.21565 0)
# Probe 560 (0.61 0.65138 0)
# Probe 561 (0.54916 0.30788 0)
# Probe 562 (0.87262 0.39859 0)
# Probe 563 (0.26651 0.8642 0)
# Probe 564 (0.23953 0.89954 0)
# Probe 565 (0.53175 0.2677 0)
# Probe 566 (0.50867 0.24106 0)
# Probe 567 (0.89832 0.53572 0)
# Probe 568 (0.16357 0.81103 0)
# Probe 569 (0.13408 0.84454 0)
# Probe 570 (0.11852 0.80599 0)
# Probe 571 (0.79263 0.45519 0)
# Probe 572 (0.75492 0.45189 0)
# Probe 573 (0.34794 0.22955 0)
# Probe 574 (0.32882 0.22511 0)
# Probe 575 (0.87445 0.81678 0)
# Probe 576 (0.38394 0.87717 0)
# Probe 577 (0.57626 0.23618 0)
# Probe 578 (0.57609 0.21312 0)
# Probe 579 (0.54051 0.69476 0)
# Probe 580 (0.88657 0.67239 0)
# Probe 581 (0.88149 0.50035 0)
# Probe 582 (0.49692 0.23535 0)
# Probe 583 (0.39866 0.4709 0)
# Probe 584 (0.38775 0.46057 0)
# Probe 585 (0.67667 0.60934 0)
# Probe 586 (0.37485 0.20017 0)
# Probe 587 (0.45758 0.78075 0)
# Probe 588 (0.44258 0.7455 0)
# Probe 589 (0.53121 0.28133 0)
# Probe 590 (0.74768 0.91549 0)
# Probe 591 (0.62485 0.84013 0)
# Probe 592 (0.64263 0.87643 0)
# Probe 593 (0.84443 0.27361 0)
# Probe 594 (0.86728 0.24201 0)
# Probe 595 (0.1341 0.30622 0)
# Probe 596 (0.10099 0.29664 0)
# Probe 597 (0.12574 0.26582 0)
# Probe 598 (0.32049 0.41774 0)
# Probe 599 (0.88903 0.43345 0)
# Probe 600 (0.30075 0.39198 0)
# Probe 601 (0.28821 0.3814 0)
# Probe 602 (0.27176 0.38483 0)
# Probe 603 (0.2761 0.36812 0)
# Probe 604 (0.40052 0.91798 0)
# Probe 605 (0.53102 0.40333 0)
# Probe 606 (0.88572 0.28141 0)
# Probe 607 (0.90413 0.71255 0)
# Probe 608 (0.71977 0.55751 0)
# Probe 609 (0.51985 0.85664 0)
# Probe 610 (0.53298 0.89446 0)
# Probe 611 (0.73477 0.20409 0)
# Probe 612 (0.33425 0.24178 0)
# Probe 613 (0.31742 0.23791 0)
# Probe 614 (0.32234 0.25297 0)
# Probe 615 (0.30624 0.25054 0)
# Probe 616 (0.31237 0.26677 0)
# Probe 617 (0.29515 0.26306 0)
# Probe 618 (0.30015 0.27897 0)
# Probe 619 (0.28329 0.2755 0)
# Probe 620 (0.28841 0.29227 0)
# Probe 621 (0.27106 0.28841 0)
# Probe 622 (0.27685 0.30534 0)
# Probe 623 (0.29373 0.30708 0)
# Probe 624 (0.28584 0.3214 0)
# Probe 625 (0.26562 0.31882 0)
# Probe 626 (0.27252 0.33595 0)
# Probe 627 (0.28957 0.33791 0)
# Probe 628 (0.36089 0.51647 0)
# Probe 629 (0.34052 0.52477 0)
# Probe 630 (0.32717 0.50903 0)
# Probe 631 (0.31953 0.53109 0)
# Probe 632 (0.34656 0.44071 0)
# Probe 633 (0.30029 0.23389 0)
# Probe 634 (0.2929 0.36393 0)
# Probe 635 (0.13428 0.39494 0)
# Probe 636 (0.75384 0.10457 0)
# Probe 637 (0.71361 0.10555 0)
# Probe 638 (0.66815 0.84504 0)
# Probe 639 (0.55169 0.51216 0)
# Probe 640 (0.53266 0.51878 0)
# Probe 641 (0.79495 0.10775 0)
# Probe 642 (0.15033 0.88567 0)
# Probe 643 (0.46692 0.88804 0)
# Probe 644 (0.07578 0.32171 0)
# Probe 645 (0.06874 0.28355 0)
# Probe 646 (0.10354 0.88019 0)
# Probe 647 (0.25393 0.33314 0)
# Probe 648 (0.8354 0.73871 0)
# Probe 649 (0.10107 0.38957 0)
# Probe 650 (0.11253 0.42483 0)
# Probe 651 (0.08263 0.41859 0)
# Probe 652 (0.08336 0.45548 0)
# Probe 653 (0.12569 0.46049 0)
# Probe 654 (0.10464 0.48996 0)
# Probe 655 (0.14082 0.49417 0)
# Probe 656 (0.11918 0.52537 0)
# Probe 657 (0.15941 0.52713 0)
# Probe 658 (0.54328 0.39632 0)
# Probe 659 (0.133 0.55972 0)
# Probe 660 (0.09669 0.55593 0)
# Probe 661 (0.10903 0.59265 0)
# Probe 662 (0.07281 0.58539 0)
# Probe 663 (0.16018 0.4659 0)
# Probe 664 (0.37612 0.22018 0)
# Probe 665 (0.38778 0.21348 0)
# Probe 666 (0.12388 0.92617 0)
# Probe 667 (0.86802 0.6349 0)
# Probe 668 (0.40418 0.53508 0)
# Probe 669 (0.09054 0.62822 0)
# Probe 670 (0.42451 0.1941 0)
# Probe 671 (0.24792 0.31637 0)
# Probe 672 (0.27578 0.43096 0)
# Probe 673 (0.25991 0.41841 0)
# Probe 674 (0.91525 0.57207 0)
# Probe 675 (0.90848 0.23836 0)
# Probe 676 (0.88822 0.20593 0)
# Probe 677 (0.74489 0.42178 0)
# Probe 678 (0.68949 0.64266 0)
# Probe 679 (0.27943 0.91015 0)
# Probe 680 (0.26144 0.35422 0)
# Probe 681 (0.53012 0.25201 0)
# Probe 682 (0.51785 0.26128 0)
# Probe 683 (0.88997 0.8584 0)
# Probe 684 (0.86208 0.89678 0)
# Probe 685 (0.53915 0.18048 0)
# Probe 686 (0.53794 0.15684 0)
# Probe 687 (0.51581 0.1477 0)
# Probe 688 (0.77485 0.06672 0)
# Probe 689 (0.26521 0.27086 0)
# Probe 690 (0.5927 0.26218 0)
# Probe 691 (0.60934 0.27105 0)
# Probe 692 (0.60982 0.29052 0)
# Probe 693 (0.59348 0.2247 0)
# Probe 694 (0.6566 0.63373 0)
# Probe 695 (0.33173 0.42822 0)
# Probe 696 (0.30623 0.29565 0)
# Probe 697 (0.61457 0.91176 0)
# Probe 698 (0.69324 0.14017 0)
# Probe 699 (0.4973 0.08255 0)
# Probe 700 (0.46088 0.08228 0)
# Probe 701 (0.43783 0.05344 0)
# Probe 702 (0.38339 0.03686 0)
# Probe 703 (0.61817 0.04837 0)
# Probe 704 (0.66953 0.04239 0)
# Probe 705 (0.24137 0.34953 0)
# Probe 706 (0.27761 0.48718 0)
# Probe 707 (0.38834 0.54352 0)
# Probe 708 (0.54887 0.29326 0)
# Probe 709 (0.93022 0.67483 0)
# Probe 710 (0.38478 0.18122 0)
# Probe 711 (0.41202 0.48081 0)
# Probe 712 (0.42688 0.47448 0)
# Probe 713 (0.43958 0.48271 0)
# Probe 714 (0.44015 0.4686 0)
# Probe 715 (0.4289 0.45895 0)
# Probe 716 (0.46869 0.20853 0)
# Probe 717 (0.48523 0.21505 0)
# Probe 718 (0.47175 0.22263 0)
# Probe 719 (0.47838 0.11344 0)
# Probe 720 (0.29723 0.49711 0)
# Probe 721 (0.94352 0.5418 0)
# Probe 722 (0.30996 0.40621 0)
# Probe 723 (0.35715 0.45229 0)
# Probe 724 (0.371 0.4621 0)
# Probe 725 (0.45461 0.21921 0)
# Probe 726 (0.44101 0.21435 0)
# Probe 727 (0.47795 0.47257 0)
# Probe 728 (0.46607 0.46265 0)
# Probe 729 (0.47972 0.45535 0)
# Probe 730 (0.49391 0.45052 0)
# Probe 731 (0.48406 0.44114 0)
# Probe 732 (0.49504 0.43672 0)
# Probe 733 (0.49793 0.42469 0)
# Probe 734 (0.50595 0.43296 0)
# Probe 735 (0.5084 0.42137 0)
# Probe 736 (0.4437 0.57354 0)
# Probe 737 (0.46148 0.55543 0)
# Probe 738 (0.4861 0.55773 0)
# Probe 739 (0.43673 0.5485 0)
# Probe 740 (0.4969 0.5806 0)
# Probe 741 (0.51041 0.55955 0)
# Probe 742 (0.52284 0.58251 0)
# Probe 743 (0.53387 0.5601 0)
# Probe 744 (0.5751 0.50306 0)
# Probe 745 (0.576 0.47757 0)
# Probe 746 (0.41316 0.46454 0)
# Probe 747 (0.44362 0.2259 0)
# Probe 748 (0.26039 0.37223 0)
# Probe 749 (0.41802 0.45379 0)
# Probe 750 (0.91989 0.8196 0)
# Probe 751 (0.5007 0.53511 0)
# Probe 752 (0.27386 0.04067 0)
# Probe 753 (0.25099 0.07921 0)
# Probe 754 (0.2081 0.08151 0)
# Probe 755 (0.22962 0.1138 0)
# Probe 756 (0.19 0.11762 0)
# Probe 757 (0.26823 0.11266 0)
# Probe 758 (0.2124 0.15206 0)
# Probe 759 (0.17267 0.15307 0)
# Probe 760 (0.14968 0.12034 0)
# Probe 761 (0.13188 0.15679 0)
# Probe 762 (0.15331 0.18905 0)
# Probe 763 (0.11479 0.19346 0)
# Probe 764 (0.10985 0.1235 0)
# Probe 765 (0.17998 0.04279 0)
# Probe 766 (0.29218 0.07821 0)
# Probe 767 (0.54955 0.32263 0)
# Probe 768 (0.54929 0.33681 0)
# Probe 769 (0.56183 0.34607 0)
# Probe 770 (0.5467 0.35093 0)
# Probe 771 (0.55995 0.36067 0)
# Probe 772 (0.54583 0.36636 0)
# Probe 773 (0.65503 0.31943 0)
# Probe 774 (0.63821 0.34234 0)
# Probe 775 (0.63134 0.31904 0)
# Probe 776 (0.70209 0.91329 0)
# Probe 777 (0.52882 0.4354 0)
# Probe 778 (0.25245 0.94435 0)
# Probe 779 (0.13853 0.22631 0)
# Probe 780 (0.10306 0.23154 0)
# Probe 781 (0.30313 0.37681 0)
# Probe 782 (0.65116 0.36396 0)
# Probe 783 (0.63749 0.38423 0)
# Probe 784 (0.64333 0.40952 0)
# Probe 785 (0.63007 0.43284 0)
# Probe 786 (0.639 0.45667 0)
# Probe 787 (0.6217 0.47812 0)
# Probe 788 (0.6107 0.45226 0)
# Probe 789 (0.90116 0.77966 0)
# Probe 790 (0.6201 0.33438 0)
# Probe 791 (0.55957 0.39928 0)
# Probe 792 (0.35879 0.91658 0)
# Probe 793 (0.30767 0.3098 0)
# Probe 794 (0.5357 0.35918 0)
# Probe 795 (0.76335 0.3916 0)
# Probe 796 (0.53877 0.30101 0)
# Probe 797 (0.53094 0.38877 0)
# Probe 798 (0.54513 0.38176 0)
# Probe 799 (0.50891 0.4573 0)
# Probe 800 (0.36546 0.2314 0)
# Probe 801 (0.95484 0.71903 0)
# Probe 802 (0.41106 0.20674 0)
# Probe 803 (0.31442 0.20531 0)
# Probe 804 (0.72151 0.44718 0)
# Probe 805 (0.72745 0.47662 0)
# Probe 806 (0.76343 0.48551 0)
# Probe 807 (0.73457 0.50852 0)
# Probe 808 (0.74733 0.3592 0)
# Probe 809 (0.37859 0.44973 0)
# Probe 810 (0.53668 0.31453 0)
# Probe 811 (0.71516 0.17274 0)
# Probe 812 (0.70248 0.20318 0)
# Probe 813 (0.36004 0.43863 0)
# Probe 814 (0.51872 0.40675 0)
# Probe 815 (0.44617 0.44545 0)
# Probe 816 (0.45723 0.44252 0)
# Probe 817 (0.45554 0.45368 0)
# Probe 818 (0.75525 0.237 0)
# Probe 819 (0.28079 0.35142 0)
# Probe 820 (0.38931 0.4485 0)
# Probe 821 (0.52834 0.33454 0)
# Probe 822 (0.40492 0.74026 0)
# Probe 823 (0.42859 0.71148 0)
# Probe 824 (0.46448 0.71633 0)
# Probe 825 (0.45213 0.68262 0)
# Probe 826 (0.39245 0.7056 0)
# Probe 827 (0.35648 0.69762 0)
# Probe 828 (0.3847 0.66712 0)
# Probe 829 (0.32928 0.72686 0)
# Probe 830 (0.32276 0.69149 0)
# Probe 831 (0.28878 0.71627 0)
# Probe 832 (0.50698 0.27424 0)
# Probe 833 (0.34024 0.41229 0)
# Probe 834 (0.35493 0.42889 0)
# Probe 835 (0.51307 0.39603 0)
# Probe 836 (0.52258 0.37718 0)
# Probe 837 (0.51951 0.27446 0)
# Probe 838 (0.50517 0.26289 0)
# Probe 839 (0.31492 0.39351 0)
# Probe 840 (0.48536 0.25263 0)
# Probe 841 (0.47556 0.43341 0)
# Probe 842 (0.68345 0.55106 0)
# Probe 843 (0.95809 0.32512 0)
# Probe 844 (0.91971 0.34969 0)
# Probe 845 (0.46549 0.24134 0)
# Probe 846 (0.95867 0.42273 0)
# Probe 847 (0.31102 0.33423 0)
# Probe 848 (0.30012 0.32883 0)
# Probe 849 (0.91381 0.90355 0)
# Probe 850 (0.34742 0.24573 0)
# Probe 851 (0.33319 0.40417 0)
# Probe 852 (0.28704 0.46827 0)
# Probe 853 (0.51806 0.29327 0)
# Probe 854 (0.38365 0.23805 0)
# Probe 855 (0.40409 0.23265 0)
# Probe 856 (0.31141 0.34531 0)
# Probe 857 (0.30255 0.35213 0)
# Probe 858 (0.31385 0.36665 0)
# Probe 859 (0.0457 0.16849 0)
# Probe 860 (0.59763 0.47136 0)
# Probe 861 (0.52415 0.95931 0)
# Probe 862 (0.16081 0.25312 0)
# Probe 863 (0.1718 0.21977 0)
# Probe 864 (0.60777 0.31769 0)
# Probe 865 (0.13627 0.6283 0)
# Probe 866 (0.11296 0.67163 0)
# Probe 867 (0.13331 0.70614 0)
# Probe 868 (0.08568 0.7048 0)
# Probe 869 (0.11492 0.74035 0)
# Probe 870 (0.07554 0.75085 0)
# Probe 871 (0.33955 0.26681 0)
# Probe 872 (0.32653 0.28403 0)
# Probe 873 (0.48026 0.74955 0)
# Probe 874 (0.49777 0.71789 0)
# Probe 875 (0.75632 0.55668 0)
# Probe 876 (0.41469 0.2317 0)
# Probe 877 (0.41997 0.22179 0)
# Probe 878 (0.46903 0.45076 0)
# Probe 879 (0.95444 0.2293 0)
# Probe 880 (0.53424 0.37314 0)
# Probe 881 (0.0422 0.4769 0)
# Probe 882 (0.91589 0.39805 0)
# Probe 883 (0.58855 0.1914 0)
# Probe 884 (0.56127 0.19036 0)
# Probe 885 (0.73124 0.39124 0)
# Probe 886 (0.58602 0.52513 0)
# Probe 887 (0.66391 0.58087 0)
# Probe 888 (0.52129 0.5379 0)
# Probe 889 (0.3171 0.3043 0)
# Probe 890 (0.44816 0.11346 0)
# Probe 891 (0.42748 0.08871 0)
# Probe 892 (0.31476 0.2828 0)
# Probe 893 (0.80099 0.49295 0)
# Probe 894 (0.82784 0.46515 0)
# Probe 895 (0.4964 0.24693 0)
# Probe 896 (0.37388 0.24133 0)
# Probe 897 (0.62844 0.36386 0)
# Probe 898 (0.61693 0.37944 0)
# Probe 899 (0.42299 0.95929 0)
# Probe 900 (0.25328 0.65228 0)
# Probe 901 (0.28558 0.65446 0)
# Probe 902 (0.67481 0.10439 0)
# Probe 903 (0.41999 0.67664 0)
# Probe 904 (0.87384 0.04271 0)
# Probe 905 (0.89907 0.08566 0)
# Probe 906 (0.95341 0.0812 0)
# Probe 907 (0.92381 0.12664 0)
# Probe 908 (0.87729 0.12181 0)
# Probe 909 (0.85318 0.08256 0)
# Probe 910 (0.16573 0.56663 0)
# Probe 911 (0.18975 0.54485 0)
# Probe 912 (0.39699 0.2241 0)
# Probe 913 (0.29553 0.53935 0)
# Probe 914 (0.62715 0.95794 0)
# Probe 915 (0.53819 0.3287 0)
# Probe 916 (0.04584 0.62426 0)
# Probe 917 (0.48372 0.68806 0)
# Probe 918 (0.04308 0.07537 0)
# Probe 919 (0.69559 0.6807 0)
# Probe 920 (0.05079 0.87583 0)
# Probe 921 (0.8265 0.63123 0)
# Probe 922 (0.37493 0.95844 0)
# Probe 923 (0.72531 0.65123 0)
# Probe 924 (0.87208 0.948 0)
# Probe 925 (0.77162 0.95834 0)
# Probe 926 (0.30523 0.11748 0)
# Probe 927 (0.52513 0.31367 0)
# Probe 928 (0.74028 0.26888 0)
# Probe 929 (0.71025 0.83228 0)
# Probe 930 (0.53993 0.20113 0)
# Probe 931 (0.49594 0.78406 0)
# Probe 932 (0.47189 0.81549 0)
# Probe 933 (0.7244 0.9573 0)
# Probe 934 (0.34797 0.66472 0)
# Probe 935 (0.33661 0.25514 0)
# Probe 936 (0.33099 0.08269 0)
# Probe 937 (0.59182 0.29915 0)
# Probe 938 (0.91317 0.63697 0)
# Probe 939 (0.09231 0.16177 0)
# Probe 940 (0.42039 0.12198 0)
# Probe 941 (0.33317 0.55101 0)
# Probe 942 (0.48602 0.2411 0)
# Probe 943 (0.62321 0.68165 0)
# Probe 944 (0.92135 0.30587 0)
# Probe 945 (0.88114 0.32728 0)
# Probe 946 (0.60822 0.80344 0)
# Probe 947 (0.30546 0.87061 0)
# Probe 948 (0.0877 0.83783 0)
# Probe 949 (0.95741 0.58376 0)
# Probe 950 (0.72013 0.34903 0)
# Probe 951 (0.81669 0.88702 0)
# Probe 952 (0.36562 0.63689 0)
# Probe 953 (0.2905 0.82992 0)
# Probe 954 (0.27198 0.62297 0)
# Probe 955 (0.19572 0.89151 0)
# Probe 956 (0.65186 0.07876 0)
# Probe 957 (0.54928 0.727 0)
# Probe 958 (0.50037 0.413 0)
# Probe 959 (0.92464 0.50489 0)
# Probe 960 (0.37013 0.83827 0)
# Probe 961 (0.07456 0.04134 0)
# Probe 962 (0.40801 0.22185 0)
# Probe 963 (0.55649 0.47063 0)
# Probe 964 (0.79343 0.73298 0)
# Probe 965 (0.32833 0.26477 0)
# Probe 966 (0.33406 0.49014 0)
# Probe 967 (0.57302 0.90315 0)
# Probe 968 (0.5152 0.44147 0)
# Probe 969 (0.54741 0.53749 0)
# Probe 970 (0.44322 0.45647 0)