# Probe 0 (0 0 0)
# Probe 1 (1 0 0)
# Probe 2 (1 1 0)
# Probe 3 (0 1 0)
# Probe 4 (0.66 0.61 0)
# Probe 5 (0.56 0.51 0)
# Probe 6 (0.46 0.61 0)
# Probe 7 (0.56 0.71 0)
# Probe 8 (0.05 0 0)
# Probe 9 (0.1 0 0)
# Probe 10 (0.15 0 0)
# Probe 11 (0.2 0 0)
# Probe 12 (0.25 0 0)
# Probe 13 (0.3 0 0)
# Probe 14 (0.35 0 0)
# Probe 15 (0.4 0 0)
# Probe 16 (0.45 0 0)
# Probe 17 (0.5 0 0)
# Probe 18 (0.55 0 0)
# Probe 19 (0.6 0 0)
# Probe 20 (0.65 0 0)
# Probe 21 (0.7 0 0)
# Probe 22 (0.75 0 0)
# Probe 23 (0.8 0 0)
# Probe 24 (0.85 0 0)
# Probe 25 (0.9 0 0)
# Probe 26 (0.95 0 0)
# Probe 27 (1 0.05 0)
# Probe 28 (1 0.1 0)
# Probe 29 (1 0.15 0)
# Probe 30 (1 0.2 0)
# Probe 31 (1 0.25 0)
# Probe 32 (1 0.3 0)
# Probe 33 (1 0.35 0)
# Probe 34 (1 0.4 0)
# Probe 35 (1 0.45 0)
# Probe 36 (1 0.5 0)
# Probe 37 (1 0.55 0)
# Probe 38 (1 0.6 0)
# Probe 39 (1 0.65 0)
# Probe 40 (1 0.7 0)
# Probe 41 (1 0.75 0)
# Probe 42 (1 0.8 0)
# Probe 43 (1 0.85 0)
# Probe 44 (1 0.9 0)
# Probe 45 (1 0.95 0)
# Probe 46 (0.95 1 0)
# Probe 47 (0.9 1 0)
# Probe 48 (0.85 1 0)
# Probe 49 (0.8 1 0)
# Probe 50 (0.75 1 0)
# Probe 51 (0.7 1 0)
# Probe 52 (0.65 1 0)
# Probe 53 (0.6 1 0)
# Probe 54 (0.55 1 0)
# Probe 55 (0.5 1 0)
# Probe 56 (0.45 1 0)
# Probe 57 (0.4 1 0)
# Probe 58 (0.35 1 0)
# Probe 59 (0.3 1 0)
# Probe 60 (0.25 1 0)
# Probe 61 (0.2 1 0)
# Probe 62 (0.15 1 0)
# Probe 63 (0.1 1 0)
# Probe 64 (0.05 1 0)
# Probe 65 (0 0.95 0)
# Probe 66 (0 0.9 0)
# Probe 67 (0 0.85 0)
# Probe 68 (0 0.8 0)
# Probe 69 (0 0.75 0)
# Probe 70 (0 0.7 0)
# Probe 71 (0 0.65 0)
# Probe 72 (0 0.6 0)
# Probe 73 (0 0.55 0)
# Probe 74 (0 0.5 0)
# Probe 75 (0 0.45 0)
# Probe 76 (0 0.4 0)
# Probe 77 (0 0.35 0)
# Probe 78 (0 0.3 0)
# Probe 79 (0 0.25 0)
# Probe 80 (0 0.2 0)
# Probe 81 (0 0.15 0)
# Probe 82 (0 0.1 0)
# Probe 83 (0 0.05 0)
# Probe 84 (0.65952 0.6002 0)
# Probe 85 (0.65808 0.59049 0)
# Probe 86 (0.65569 0.58097 0)
# Probe 87 (0.65239 0.57173 0)
# Probe 88 (0.64819 0.56286 0)
# Probe 89 (0.64315 0.55444 0)
# Probe 90 (0.6373 0.54656 0)
# Probe 91 (0.63071 0.53929 0)
# Probe 92 (0.62344 0.5327 0)
# Probe 93 (0.61556 0.52685 0)
# Probe 94 (0.60714 0.52181 0)
# Probe 95 (0.59827 0.51761 0)
# Probe 96 (0.58903 0.51431 0)
# Probe 97 (0.57951 0.51192 0)
# Probe 98 (0.5698 0.51048 0)
# Probe 99 (0.5502 0.51048 0)
# Probe 100 (0.54049 0.51192 0)
# Probe 101 (0.53097 0.51431 0)
# Probe 102 (0.52173 0.51761 0)
# Probe 103 (0.51286 0.52181 0)
# Probe 104 (0.50444 0.52685 0)
# Probe 105 (0.49656 0.5327 0)
# Probe 106 (0.48929 0.53929 0)
# Probe 107 (0.4827 0.54656 0)
# Probe 108 (0.47685 0.55444 0)
# Probe 109 (0.47181 0.56286 0)
# Probe 110 (0.46761 0.57173 0)
# Probe 111 (0.46431 0.58097 0)
# Probe 112 (0.46192 0.59049 0)
# Probe 113 (0.46048 0.6002 0)
# Probe 114 (0.46048 0.6198 0)
# Probe 115 (0.46192 0.62951 0)
# Probe 116 (0.46431 0.63903 0)
# Probe 117 (0.46761 0.64827 0)
# Probe 118 (0.47181 0.65714 0)
# Probe 119 (0.47685 0.66556 0)
# Probe 120 (0.4827 0.67344 0)
# Probe 121 (0.48929 0.68071 0)
# Probe 122 (0.49656 0.6873 0)
# Probe 123 (0.50444 0.69315 0)
# Probe 124 (0.51286 0.69819 0)
# Probe 125 (0.52173 0.70239 0)
# Probe 126 (0.53097 0.70569 0)
# Probe 127 (0.54049 0.70808 0)
# Probe 128 (0.5502 0.70952 0)
# Probe 129 (0.5698 0.70952 0)
# Probe 130 (0.57951 0.70808 0)
# Probe 131 (0.58903 0.70569 0)
# Probe 132 (0.59827 0.70239 0)
# Probe 133 (0.60714 0.69819 0)
# Probe 134 (0.61556 0.69315 0)
# Probe 135 (0.62344 0.6873 0)
# Probe 136 (0.63071 0.68071 0)
# Probe 137 (0.6373 0.67344 0)
# Probe 138 (0.64315 0.66556 0)
# Probe 139 (0.64819 0.65714 0)
# Probe 140 (0.65239 0.64827 0)
# Probe 141 (0.65569 0.63903 0)
# Probe 142 (0.65808 0.62951 0)
# Probe 143 (0.65952 0.6198 0)
# Probe 144 (0.32455 0.04001 0)
# Probe 145 (0.725 0.0433 0)
# Probe 146 (0.04191 0.37748 0)
# Probe 147 (0.47768 0.03668 0)
# Probe 148 (0.95716 0.32627 0)
# Probe 149 (0.04763 0.72768 0)
# Probe 150 (0.04284 0.52628 0)
# Probe 151 (0.27415 0.96244 0)
# Probe 152 (0.95764 0.77537 0)
# Probe 153 (0.95784 0.47466 0)
# Probe 154 (0.72705 0.95841 0)
# Probe 155 (0.9534 0.62688 0)
# Probe 156 (0.41914 0.96024 0)
# Probe 157 (0.04123 0.22791 0)
# Probe 158 (0.57356 0.95609 0)
# Probe 159 (0.95737 0.17419 0)
# Probe 160 (0.17528 0.04189 0)
# Probe 161 (0.82816 0.95789 0)
# Probe 162 (0.17441 0.96034 0)
# Probe 163 (0.04076 0.62429 0)
# Probe 164 (0.04393 0.82777 0)
# Probe 165 (0.57501 0.04383 0)
# Probe 166 (0.82791 0.04013 0)
# Probe 167 (0.96061 0.87634 0)
# Probe 168 (0.04182 0.13149 0)
# Probe 169 (0.03747 0.92623 0)
# Probe 170 (0.92665 0.04727 0)
# Probe 171 (0.91826 0.94926 0)
# Probe 172 (0.07521 0.04233 0)
# Probe 173 (0.77598 0.9582 0)
# Probe 174 (0.75149 0.91937 0)
# Probe 175 (0.70782 0.91883 0)
# Probe 176 (0.58682 0.71673 0)
# Probe 177 (0.72993 0.88362 0)
# Probe 178 (0.61563 0.70324 0)
# Probe 179 (0.69263 0.88215 0)
# Probe 180 (0.7114 0.85248 0)
# Probe 181 (0.67859 0.85071 0)
# Probe 182 (0.69482 0.82468 0)
# Probe 183 (0.72481 0.82397 0)
# Probe 184 (0.71006 0.79924 0)
# Probe 185 (0.64073 0.68246 0)
# Probe 186 (0.73873 0.79889 0)
# Probe 187 (0.72468 0.77667 0)
# Probe 188 (0.7524 0.77485 0)
# Probe 189 (0.73404 0.75207 0)
# Probe 190 (0.65738 0.65733 0)
# Probe 191 (0.76512 0.75092 0)
# Probe 192 (0.7515 0.72786 0)
# Probe 193 (0.66394 0.81944 0)
# Probe 194 (0.77968 0.72725 0)
# Probe 195 (0.76218 0.70178 0)
# Probe 196 (0.66727 0.62665 0)
# Probe 197 (0.7675 0.79865 0)
# Probe 198 (0.69594 0.77592 0)
# Probe 199 (0.79354 0.70251 0)
# Probe 200 (0.77873 0.67885 0)
# Probe 201 (0.72731 0.72786 0)
# Probe 202 (0.75259 0.67702 0)
# Probe 203 (0.76555 0.65659 0)
# Probe 204 (0.79179 0.65514 0)
# Probe 205 (0.7745 0.6309 0)
# Probe 206 (0.66691 0.59412 0)
# Probe 207 (0.80409 0.63091 0)
# Probe 208 (0.78897 0.60687 0)
# Probe 209 (0.81755 0.60617 0)
# Probe 210 (0.8018 0.58288 0)
# Probe 211 (0.77487 0.58398 0)
# Probe 212 (0.78656 0.56106 0)
# Probe 213 (0.6581 0.56363 0)
# Probe 214 (0.75798 0.56484 0)
# Probe 215 (0.77103 0.54153 0)
# Probe 216 (0.74772 0.54295 0)
# Probe 217 (0.7576 0.52233 0)
# Probe 218 (0.7356 0.52374 0)
# Probe 219 (0.74503 0.50325 0)
# Probe 220 (0.64039 0.53742 0)
# Probe 221 (0.76812 0.50263 0)
# Probe 222 (0.75443 0.48199 0)
# Probe 223 (0.73091 0.48461 0)
# Probe 224 (0.73993 0.46275 0)
# Probe 225 (0.71637 0.46536 0)
# Probe 226 (0.72661 0.44378 0)
# Probe 227 (0.70196 0.44644 0)
# Probe 228 (0.71106 0.4246 0)
# Probe 229 (0.68721 0.42732 0)
# Probe 230 (0.6965 0.40531 0)
# Probe 231 (0.67231 0.40807 0)
# Probe 232 (0.68295 0.38588 0)
# Probe 233 (0.65763 0.38878 0)
# Probe 234 (0.66837 0.36543 0)
# Probe 235 (0.6418 0.36967 0)
# Probe 236 (0.57663 0.50273 0)
# Probe 237 (0.65173 0.34469 0)
# Probe 238 (0.62516 0.34811 0)
# Probe 239 (0.68002 0.3413 0)
# Probe 240 (0.72325 0.40248 0)
# Probe 241 (0.76435 0.45968 0)
# Probe 242 (0.63544 0.32274 0)
# Probe 243 (0.60813 0.32664 0)
# Probe 244 (0.59779 0.35223 0)
# Probe 245 (0.58121 0.33086 0)
# Probe 246 (0.57021 0.35489 0)
# Probe 247 (0.55494 0.33474 0)
# Probe 248 (0.54375 0.503 0)
# Probe 249 (0.54563 0.35865 0)
# Probe 250 (0.52963 0.339 0)
# Probe 251 (0.52059 0.36237 0)
# Probe 252 (0.50462 0.3427 0)
# Probe 253 (0.49591 0.36575 0)
# Probe 254 (0.47902 0.34557 0)
# Probe 255 (0.46948 0.37305 0)
# Probe 256 (0.45317 0.34986 0)
# Probe 257 (0.44314 0.37409 0)
# Probe 258 (0.42772 0.3537 0)
# Probe 259 (0.41833 0.37839 0)
# Probe 260 (0.48575 0.52806 0)
# Probe 261 (0.40246 0.35766 0)
# Probe 262 (0.39143 0.38137 0)
# Probe 263 (0.37295 0.35757 0)
# Probe 264 (0.36293 0.38556 0)
# Probe 265 (0.51366 0.51203 0)
# Probe 266 (0.34465 0.36495 0)
# Probe 267 (0.33409 0.39272 0)
# Probe 268 (0.35588 0.41421 0)
# Probe 269 (0.32441 0.42081 0)
# Probe 270 (0.34169 0.44285 0)
# Probe 271 (0.46669 0.55487 0)
# Probe 272 (0.41301 0.3317 0)
# Probe 273 (0.48599 0.31874 0)
# Probe 274 (0.5666 0.30911 0)
# Probe 275 (0.31402 0.44853 0)
# Probe 276 (0.33179 0.46857 0)
# Probe 277 (0.3043 0.47503 0)
# Probe 278 (0.32245 0.49717 0)
# Probe 279 (0.45455 0.58458 0)
# Probe 280 (0.29488 0.50174 0)
# Probe 281 (0.31181 0.52377 0)
# Probe 282 (0.60655 0.51237 0)
# Probe 283 (0.31411 0.3696 0)
# Probe 284 (0.32613 0.33982 0)
# Probe 285 (0.28503 0.52793 0)
# Probe 286 (0.3028 0.54937 0)
# Probe 287 (0.27503 0.5541 0)
# Probe 288 (0.29318 0.57568 0)
# Probe 289 (0.45098 0.61365 0)
# Probe 290 (0.27503 0.47964 0)
# Probe 291 (0.26501 0.58088 0)
# Probe 292 (0.28369 0.6032 0)
# Probe 293 (0.29294 0.34464 0)
# Probe 294 (0.30765 0.31202 0)
# Probe 295 (0.43371 0.39592 0)
# Probe 296 (0.36101 0.46234 0)
# Probe 297 (0.25494 0.609 0)
# Probe 298 (0.27396 0.63198 0)
# Probe 299 (0.30402 0.62611 0)
# Probe 300 (0.29241 0.65465 0)
# Probe 301 (0.45789 0.64603 0)
# Probe 302 (0.26397 0.66099 0)
# Probe 303 (0.28274 0.6837 0)
# Probe 304 (0.31479 0.67353 0)
# Probe 305 (0.30495 0.70452 0)
# Probe 306 (0.33398 0.69855 0)
# Probe 307 (0.32296 0.72592 0)
# Probe 308 (0.35319 0.72068 0)
# Probe 309 (0.47964 0.68358 0)
# Probe 310 (0.27082 0.71108 0)
# Probe 311 (0.34234 0.7485 0)
# Probe 312 (0.37385 0.74278 0)
# Probe 313 (0.55944 0.37813 0)
# Probe 314 (0.32943 0.54549 0)
# Probe 315 (0.62357 0.52394 0)
# Probe 316 (0.46759 0.66573 0)
# Probe 317 (0.64938 0.41135 0)
# Probe 318 (0.27181 0.31702 0)
# Probe 319 (0.28536 0.28387 0)
# Probe 320 (0.34493 0.67292 0)
# Probe 321 (0.24625 0.55832 0)
# Probe 322 (0.25904 0.35 0)
# Probe 323 (0.36421 0.77178 0)
# Probe 324 (0.52124 0.71352 0)
# Probe 325 (0.39395 0.76515 0)
# Probe 326 (0.50361 0.70373 0)
# Probe 327 (0.54384 0.7176 0)
# Probe 328 (0.56626 0.71866 0)
# Probe 329 (0.33042 0.77996 0)
# Probe 330 (0.23614 0.32323 0)
# Probe 331 (0.67745 0.4515 0)
# Probe 332 (0.22251 0.35725 0)
# Probe 333 (0.32305 0.27898 0)
# Probe 334 (0.29926 0.25039 0)
# Probe 335 (0.33721 0.24549 0)
# Probe 336 (0.8132 0.5581 0)
# Probe 337 (0.38304 0.71543 0)
# Probe 338 (0.38516 0.79266 0)
# Probe 339 (0.41359 0.78582 0)
# Probe 340 (0.5132 0.38388 0)
# Probe 341 (0.75173 0.58911 0)
# Probe 342 (0.70662 0.48925 0)
# Probe 343 (0.61845 0.29999 0)
# Probe 344 (0.42359 0.75865 0)
# Probe 345 (0.44145 0.77978 0)
# Probe 346 (0.43362 0.80617 0)
# Probe 347 (0.4597 0.79849 0)
# Probe 348 (0.19884 0.32849 0)
# Probe 349 (0.80909 0.72804 0)
# Probe 350 (0.72648 0.54298 0)
# Probe 351 (0.64776 0.84689 0)
# Probe 352 (0.63504 0.82109 0)
# Probe 353 (0.61967 0.84407 0)
# Probe 354 (0.60829 0.81932 0)
# Probe 355 (0.59213 0.84142 0)
# Probe 356 (0.58146 0.81302 0)
# Probe 357 (0.56485 0.83874 0)
# Probe 358 (0.62261 0.79718 0)
# Probe 359 (0.74076 0.65762 0)
# Probe 360 (0.31371 0.21526 0)
# Probe 361 (0.27491 0.22014 0)
# Probe 362 (0.35186 0.21115 0)
# Probe 363 (0.45535 0.8283 0)
# Probe 364 (0.8244 0.70149 0)
# Probe 365 (0.42498 0.83522 0)
# Probe 366 (0.64754 0.29625 0)
# Probe 367 (0.62972 0.27188 0)
# Probe 368 (0.66074 0.26817 0)
# Probe 369 (0.64165 0.24176 0)
# Probe 370 (0.67486 0.23765 0)
# Probe 371 (0.65439 0.21002 0)
# Probe 372 (0.62264 0.21655 0)
# Probe 373 (0.68943 0.20577 0)
# Probe 374 (0.71056 0.23524 0)
# Probe 375 (0.7257 0.20108 0)
# Probe 376 (0.74823 0.23289 0)
# Probe 377 (0.76383 0.19646 0)
# Probe 378 (0.7866 0.22927 0)
# Probe 379 (0.77042 0.26495 0)
# Probe 380 (0.66813 0.17773 0)
# Probe 381 (0.46722 0.77133 0)
# Probe 382 (0.80884 0.26169 0)
# Probe 383 (0.7921 0.29678 0)
# Probe 384 (0.18498 0.36322 0)
# Probe 385 (0.80335 0.19234 0)
# Probe 386 (0.55455 0.81356 0)
# Probe 387 (0.56702 0.79209 0)
# Probe 388 (0.83377 0.62906 0)
# Probe 389 (0.84837 0.6032 0)
# Probe 390 (0.29019 0.18311 0)
# Probe 391 (0.2493 0.18859 0)
# Probe 392 (0.54402 0.79078 0)
# Probe 393 (0.16023 0.33266 0)
# Probe 394 (0.18328 0.2988 0)
# Probe 395 (0.84064 0.72895 0)
# Probe 396 (0.20918 0.39284 0)
# Probe 397 (0.17175 0.39904 0)
# Probe 398 (0.37469 0.2413 0)
# Probe 399 (0.38957 0.20726 0)
# Probe 400 (0.41161 0.23777 0)
# Probe 401 (0.42738 0.20408 0)
# Probe 402 (0.40495 0.17251 0)
# Probe 403 (0.44318 0.16925 0)
# Probe 404 (0.46529 0.20089 0)
# Probe 405 (0.48146 0.1661 0)
# Probe 406 (0.86075 0.69847 0)
# Probe 407 (0.196 0.42861 0)
# Probe 408 (0.15849 0.43487 0)
# Probe 409 (0.18283 0.46458 0)
# Probe 410 (0.50279 0.19746 0)
# Probe 411 (0.51991 0.16284 0)
# Probe 412 (0.83069 0.29369 0)
# Probe 413 (0.81325 0.3276 0)
# Probe 414 (0.53771 0.83677 0)
# Probe 415 (0.76893 0.88301 0)
# Probe 416 (0.84852 0.25808 0)
# Probe 417 (0.26577 0.15063 0)
# Probe 418 (0.22351 0.15573 0)
# Probe 419 (0.55764 0.76976 0)
# Probe 420 (0.536 0.77016 0)
# Probe 421 (0.62995 0.87151 0)
# Probe 422 (0.77951 0.15871 0)
# Probe 423 (0.8215 0.15381 0)
# Probe 424 (0.44812 0.85949 0)
# Probe 425 (0.41592 0.86583 0)
# Probe 426 (0.57773 0.7728 0)
# Probe 427 (0.77622 0.32966 0)
# Probe 428 (0.79681 0.35975 0)
# Probe 429 (0.83281 0.3584 0)
# Probe 430 (0.81682 0.39021 0)
# Probe 431 (0.85193 0.38841 0)
# Probe 432 (0.83614 0.42053 0)
# Probe 433 (0.42105 0.13655 0)
# Probe 434 (0.38188 0.1404 0)
# Probe 435 (0.72957 0.67558 0)
# Probe 436 (0.71664 0.65876 0)
# Probe 437 (0.71063 0.67684 0)
# Probe 438 (0.72889 0.64054 0)
# Probe 439 (0.70912 0.64055 0)
# Probe 440 (0.71792 0.6248 0)
# Probe 441 (0.14646 0.4714 0)
# Probe 442 (0.16992 0.50091 0)
# Probe 443 (0.48701 0.23099 0)
# Probe 444 (0.52259 0.22768 0)
# Probe 445 (0.549 0.86414 0)
# Probe 446 (0.29458 0.4269 0)
# Probe 447 (0.2072 0.19512 0)
# Probe 448 (0.1802 0.16139 0)
# Probe 449 (0.16357 0.20189 0)
# Probe 450 (0.14022 0.29294 0)
# Probe 451 (0.82401 0.75685 0)
# Probe 452 (0.85825 0.75832 0)
# Probe 453 (0.83954 0.78941 0)
# Probe 454 (0.52251 0.78785 0)
# Probe 455 (0.86632 0.6292 0)
# Probe 456 (0.8692 0.42117 0)
# Probe 457 (0.85419 0.45138 0)
# Probe 458 (0.88198 0.60028 0)
# Probe 459 (0.57163 0.75552 0)
# Probe 460 (0.58877 0.7572 0)
# Probe 461 (0.11992 0.44082 0)
# Probe 462 (0.51492 0.76748 0)
# Probe 463 (0.52741 0.75196 0)
# Probe 464 (0.50885 0.74921 0)
# Probe 465 (0.70057 0.62517 0)
# Probe 466 (0.70825 0.61044 0)
# Probe 467 (0.69217 0.63796 0)
# Probe 468 (0.7155 0.52576 0)
# Probe 469 (0.70674 0.54315 0)
# Probe 470 (0.69697 0.52865 0)
# Probe 471 (0.71672 0.55971 0)
# Probe 472 (0.69835 0.55889 0)
# Probe 473 (0.87074 0.35563 0)
# Probe 474 (0.51796 0.86182 0)
# Probe 475 (0.53136 0.89139 0)
# Probe 476 (0.39932 0.10331 0)
# Probe 477 (0.23859 0.11902 0)
# Probe 478 (0.13311 0.50786 0)
# Probe 479 (0.15675 0.53771 0)
# Probe 480 (0.87682 0.79028 0)
# Probe 481 (0.85654 0.8239 0)
# Probe 482 (0.69234 0.61151 0)
# Probe 483 (0.69936 0.59727 0)
# Probe 484 (0.20641 0.49473 0)
# Probe 485 (0.11867 0.5437 0)
# Probe 486 (0.14439 0.57335 0)
# Probe 487 (0.73702 0.62314 0)
# Probe 488 (0.50782 0.25909 0)
# Probe 489 (0.47246 0.26269 0)
# Probe 490 (0.1357 0.16666 0)
# Probe 491 (0.49852 0.13058 0)
# Probe 492 (0.53784 0.12736 0)
# Probe 493 (0.55983 0.16089 0)
# Probe 494 (0.5781 0.12479 0)
# Probe 495 (0.78252 0.39187 0)
# Probe 496 (0.66889 0.91384 0)
# Probe 497 (0.49793 0.88848 0)
# Probe 498 (0.5407 0.25616 0)
# Probe 499 (0.4827 0.81872 0)
# Probe 500 (0.59906 0.27617 0)
# Probe 501 (0.87017 0.29364 0)
# Probe 502 (0.89059 0.25763 0)
# Probe 503 (0.39961 0.27614 0)
# Probe 504 (0.58194 0.74216 0)
# Probe 505 (0.59838 0.74318 0)
# Probe 506 (0.60629 0.75801 0)
# Probe 507 (0.61561 0.74037 0)
# Probe 508 (0.62362 0.75793 0)
# Probe 509 (0.63306 0.7424 0)
# Probe 510 (0.64148 0.75879 0)
# Probe 511 (0.65037 0.7431 0)
# Probe 512 (0.64209 0.72767 0)
# Probe 513 (0.65891 0.72783 0)
# Probe 514 (0.64923 0.71422 0)
# Probe 515 (0.6651 0.71106 0)
# Probe 516 (0.67632 0.72769 0)
# Probe 517 (0.68513 0.71183 0)
# Probe 518 (0.67537 0.69634 0)
# Probe 519 (0.6046 0.72874 0)
# Probe 520 (0.71559 0.59588 0)
# Probe 521 (0.18051 0.56671 0)
# Probe 522 (0.16906 0.60389 0)
# Probe 523 (0.13338 0.61089 0)
# Probe 524 (0.15729 0.64098 0)
# Probe 525 (0.11916 0.64809 0)
# Probe 526 (0.14601 0.67726 0)
# Probe 527 (0.18336 0.67041 0)
# Probe 528 (0.17151 0.70708 0)
# Probe 529 (0.12675 0.71391 0)
# Probe 530 (0.16007 0.74579 0)
# Probe 531 (0.1205 0.75553 0)
# Probe 532 (0.14929 0.78556 0)
# Probe 533 (0.18967 0.77587 0)
# Probe 534 (0.1785 0.81542 0)
# Probe 535 (0.21871 0.80507 0)
# Probe 536 (0.20749 0.84496 0)
# Probe 537 (0.24682 0.83393 0)
# Probe 538 (0.16659 0.85603 0)
# Probe 539 (0.25741 0.79602 0)
# Probe 540 (0.28517 0.824 0)
# Probe 541 (0.27491 0.86182 0)
# Probe 542 (0.31315 0.8514 0)
# Probe 543 (0.20961 0.69858 0)
# Probe 544 (0.86172 0.57188 0)
# Probe 545 (0.89799 0.56852 0)
# Probe 546 (0.87649 0.54011 0)
# Probe 547 (0.11963 0.34007 0)
# Probe 548 (0.09168 0.30787 0)
# Probe 549 (0.86594 0.22025 0)
# Probe 550 (0.65961 0.75984 0)
# Probe 551 (0.30346 0.88903 0)
# Probe 552 (0.34179 0.88029 0)
# Probe 553 (0.33063 0.91766 0)
# Probe 554 (0.55689 0.2267 0)
# Probe 555 (0.67803 0.29345 0)
# Probe 556 (0.82086 0.45232 0)
# Probe 557 (0.83843 0.48147 0)
# Probe 558 (0.87309 0.48331 0)
# Probe 559 (0.56313 0.89252 0)
# Probe 560 (0.23172 0.42209 0)
# Probe 561 (0.30557 0.14837 0)
# Probe 562 (0.51205 0.92213 0)
# Probe 563 (0.79634 0.11964 0)
# Probe 564 (0.75278 0.12176 0)
# Probe 565 (0.83979 0.11545 0)
# Probe 566 (0.86469 0.14978 0)
# Probe 567 (0.10717 0.2658 0)
# Probe 568 (0.91238 0.53474 0)
# Probe 569 (0.44055 0.8914 0)
# Probe 570 (0.40639 0.89943 0)
# Probe 571 (0.15309 0.12179 0)
# Probe 572 (0.56668 0.74103 0)
# Probe 573 (0.89951 0.82502 0)
# Probe 574 (0.87578 0.86026 0)
# Probe 575 (0.65238 0.77711 0)
# Probe 576 (0.39279 0.84135 0)
# Probe 577 (0.83239 0.85581 0)
# Probe 578 (0.19746 0.88426 0)
# Probe 579 (0.5041 0.78298 0)
# Probe 580 (0.89557 0.75991 0)
# Probe 581 (0.60368 0.16103 0)
# Probe 582 (0.62064 0.12191 0)
# Probe 583 (0.63609 0.71339 0)
# Probe 584 (0.5193 0.73648 0)
# Probe 585 (0.50401 0.73077 0)
# Probe 586 (0.49184 0.74485 0)
# Probe 587 (0.48707 0.72823 0)
# Probe 588 (0.47536 0.74058 0)
# Probe 589 (0.46983 0.72409 0)
# Probe 590 (0.45586 0.73939 0)
# Probe 591 (0.45266 0.72015 0)
# Probe 592 (0.46603 0.70864 0)
# Probe 593 (0.45062 0.7016 0)
# Probe 594 (0.43669 0.71634 0)
# Probe 595 (0.43204 0.69781 0)
# Probe 596 (0.44398 0.68574 0)
# Probe 597 (0.42812 0.68105 0)
# Probe 598 (0.4399 0.67008 0)
# Probe 599 (0.42465 0.66451 0)
# Probe 600 (0.41233 0.67551 0)
# Probe 601 (0.40888 0.65893 0)
# Probe 602 (0.42177 0.64811 0)
# Probe 603 (0.40652 0.64233 0)
# Probe 604 (0.41928 0.63223 0)
# Probe 605 (0.40401 0.62604 0)
# Probe 606 (0.41638 0.61463 0)
# Probe 607 (0.40038 0.60909 0)
# Probe 608 (0.38734 0.61979 0)
# Probe 609 (0.38535 0.60219 0)
# Probe 610 (0.39997 0.59159 0)
# Probe 611 (0.38311 0.58413 0)
# Probe 612 (0.40034 0.57396 0)
# Probe 613 (0.36948 0.59785 0)
# Probe 614 (0.38115 0.56576 0)
# Probe 615 (0.39655 0.55528 0)
# Probe 616 (0.40908 0.56178 0)
# Probe 617 (0.41301 0.54699 0)
# Probe 618 (0.39497 0.53741 0)
# Probe 619 (0.41035 0.52775 0)
# Probe 620 (0.42654 0.53541 0)
# Probe 621 (0.42498 0.5183 0)
# Probe 622 (0.43951 0.52593 0)
# Probe 623 (0.43928 0.50953 0)
# Probe 624 (0.42426 0.50116 0)
# Probe 625 (0.43931 0.4923 0)
# Probe 626 (0.42344 0.48324 0)
# Probe 627 (0.43917 0.47384 0)
# Probe 628 (0.45476 0.48324 0)
# Probe 629 (0.45489 0.46511 0)
# Probe 630 (0.47191 0.47613 0)
# Probe 631 (0.47064 0.45674 0)
# Probe 632 (0.48561 0.46544 0)
# Probe 633 (0.42261 0.46406 0)
# Probe 634 (0.48576 0.44784 0)
# Probe 635 (0.50043 0.45699 0)
# Probe 636 (0.47002 0.49135 0)
# Probe 637 (0.50047 0.47335 0)
# Probe 638 (0.51434 0.46579 0)
# Probe 639 (0.51536 0.44931 0)
# Probe 640 (0.5303 0.45904 0)
# Probe 641 (0.53028 0.44176 0)
# Probe 642 (0.54483 0.45 0)
# Probe 643 (0.54508 0.43391 0)
# Probe 644 (0.55956 0.44322 0)
# Probe 645 (0.55835 0.46028 0)
# Probe 646 (0.57384 0.45298 0)
# Probe 647 (0.57487 0.43585 0)
# Probe 648 (0.58905 0.44573 0)
# Probe 649 (0.59112 0.42786 0)
# Probe 650 (0.58775 0.46254 0)
# Probe 651 (0.6025 0.45582 0)
# Probe 652 (0.60092 0.47197 0)
# Probe 653 (0.61548 0.46541 0)
# Probe 654 (0.39353 0.51859 0)
# Probe 655 (0.3927 0.65267 0)
# Probe 656 (0.61378 0.48091 0)
# Probe 657 (0.62897 0.47432 0)
# Probe 658 (0.63234 0.45816 0)
# Probe 659 (0.62654 0.48977 0)
# Probe 660 (0.6409 0.48378 0)
# Probe 661 (0.47013 0.43814 0)
# Probe 662 (0.63913 0.49896 0)
# Probe 663 (0.6528 0.49291 0)
# Probe 664 (0.65151 0.50797 0)
# Probe 665 (0.66508 0.50176 0)
# Probe 666 (0.66255 0.51661 0)
# Probe 667 (0.51357 0.48125 0)
# Probe 668 (0.50114 0.48815 0)
# Probe 669 (0.51616 0.43215 0)
# Probe 670 (0.45302 0.51806 0)
# Probe 671 (0.44139 0.54138 0)
# Probe 672 (0.37695 0.52924 0)
# Probe 673 (0.59948 0.48669 0)
# Probe 674 (0.40621 0.4735 0)
# Probe 675 (0.40446 0.45364 0)
# Probe 676 (0.66787 0.48569 0)
# Probe 677 (0.42259 0.44396 0)
# Probe 678 (0.40501 0.43076 0)
# Probe 679 (0.37543 0.5088 0)
# Probe 680 (0.43411 0.63808 0)
# Probe 681 (0.57574 0.41741 0)
# Probe 682 (0.59304 0.40893 0)
# Probe 683 (0.60921 0.42049 0)
# Probe 684 (0.48644 0.42897 0)
# Probe 685 (0.46994 0.41875 0)
# Probe 686 (0.61226 0.40072 0)
# Probe 687 (0.35785 0.51985 0)
# Probe 688 (0.5362 0.73715 0)
# Probe 689 (0.41893 0.7109 0)
# Probe 690 (0.36314 0.10784 0)
# Probe 691 (0.71896 0.69412 0)
# Probe 692 (0.88409 0.11094 0)
# Probe 693 (0.67617 0.51329 0)
# Probe 694 (0.52532 0.28682 0)
# Probe 695 (0.10806 0.7959 0)
# Probe 696 (0.45221 0.42868 0)
# Probe 697 (0.15668 0.89534 0)
# Probe 698 (0.12365 0.86657 0)
# Probe 699 (0.5946 0.38818 0)
# Probe 700 (0.92951 0.56433 0)
# Probe 701 (0.48782 0.40924 0)
# Probe 702 (0.62545 0.50481 0)
# Probe 703 (0.20378 0.5941 0)
# Probe 704 (0.5148 0.09334 0)
# Probe 705 (0.43857 0.10148 0)
# Probe 706 (0.85241 0.89285 0)
# Probe 707 (0.70418 0.58279 0)
# Probe 708 (0.68976 0.5845 0)
# Probe 709 (0.7218 0.5776 0)
# Probe 710 (0.80669 0.48133 0)
# Probe 711 (0.82137 0.50936 0)
# Probe 712 (0.35781 0.54172 0)
# Probe 713 (0.69511 0.72774 0)
# Probe 714 (0.64175 0.70054 0)
# Probe 715 (0.11245 0.91383 0)
# Probe 716 (0.2651 0.89849 0)
# Probe 717 (0.1907 0.23337 0)
# Probe 718 (0.51391 0.49426 0)
# Probe 719 (0.52518 0.48852 0)
# Probe 720 (0.50344 0.50428 0)
# Probe 721 (0.49047 0.49595 0)
# Probe 722 (0.49141 0.50722 0)
# Probe 723 (0.35769 0.49955 0)
# Probe 724 (0.38431 0.44378 0)
# Probe 725 (0.68611 0.74386 0)
# Probe 726 (0.68587 0.62426 0)
# Probe 727 (0.67843 0.61081 0)
# Probe 728 (0.65128 0.52229 0)
# Probe 729 (0.66057 0.52989 0)
# Probe 730 (0.62615 0.7264 0)
# Probe 731 (0.90121 0.63034 0)
# Probe 732 (0.89448 0.8999 0)
# Probe 733 (0.76959 0.08381 0)
# Probe 734 (0.69147 0.69434 0)
# Probe 735 (0.68196 0.68106 0)
# Probe 736 (0.66733 0.68227 0)
# Probe 737 (0.67452 0.66855 0)
# Probe 738 (0.68893 0.66695 0)
# Probe 739 (0.41296 0.06105 0)
# Probe 740 (0.60146 0.79414 0)
# Probe 741 (0.68112 0.65637 0)
# Probe 742 (0.07904 0.87403 0)
# Probe 743 (0.67727 0.63412 0)
# Probe 744 (0.70821 0.7427 0)
# Probe 745 (0.66011 0.69418 0)
# Probe 746 (0.22104 0.6636 0)
# Probe 747 (0.90926 0.21943 0)
# Probe 748 (0.93407 0.25281 0)
# Probe 749 (0.11633 0.21024 0)
# Probe 750 (0.08414 0.16116 0)
# Probe 751 (0.52471 0.49952 0)
# Probe 752 (0.40056 0.73979 0)
# Probe 753 (0.54437 0.75356 0)
# Probe 754 (0.43776 0.26796 0)
# Probe 755 (0.36229 0.69473 0)
# Probe 756 (0.38569 0.6901 0)
# Probe 757 (0.37313 0.66859 0)
# Probe 758 (0.35641 0.65118 0)
# Probe 759 (0.33288 0.65109 0)
# Probe 760 (0.34476 0.63142 0)
# Probe 761 (0.61171 0.49555 0)
# Probe 762 (0.87741 0.66259 0)
# Probe 763 (0.92301 0.66271 0)
# Probe 764 (0.90033 0.69662 0)
# Probe 765 (0.76518 0.6067 0)
# Probe 766 (0.68506 0.5983 0)
# Probe 767 (0.6386 0.51431 0)
# Probe 768 (0.68315 0.79833 0)
# Probe 769 (0.59126 0.72949 0)
# Probe 770 (0.47114 0.91557 0)
# Probe 771 (0.45322 0.53274 0)
# Probe 772 (0.46501 0.52475 0)
# Probe 773 (0.46653 0.51152 0)
# Probe 774 (0.46543 0.53919 0)
# Probe 775 (0.45429 0.54616 0)
# Probe 776 (0.44371 0.55489 0)
# Probe 777 (0.43048 0.55077 0)
# Probe 778 (0.4343 0.56521 0)
# Probe 779 (0.44787 0.56764 0)
# Probe 780 (0.43782 0.57739 0)
# Probe 781 (0.42575 0.57508 0)
# Probe 782 (0.4293 0.58791 0)
# Probe 783 (0.47643 0.5189 0)
# Probe 784 (0.68951 0.54402 0)
# Probe 785 (0.68374 0.55721 0)
# Probe 786 (0.67407 0.54595 0)
# Probe 787 (0.68065 0.53023 0)
# Probe 788 (0.39251 0.49935 0)
# Probe 789 (0.83958 0.67389 0)
# Probe 790 (0.45258 0.67441 0)
# Probe 791 (0.45006 0.66205 0)
# Probe 792 (0.4578 0.68594 0)
# Probe 793 (0.43843 0.65415 0)
# Probe 794 (0.70402 0.51106 0)
# Probe 795 (0.5766 0.72756 0)
# Probe 796 (0.69458 0.46909 0)
# Probe 797 (0.94508 0.69726 0)
# Probe 798 (0.58732 0.47831 0)
# Probe 799 (0.58494 0.49334 0)
# Probe 800 (0.57408 0.48452 0)
# Probe 801 (0.57401 0.46957 0)
# Probe 802 (0.56248 0.47832 0)
# Probe 803 (0.54829 0.47244 0)
# Probe 804 (0.56233 0.49157 0)
# Probe 805 (0.59747 0.49874 0)
# Probe 806 (0.44322 0.58935 0)
# Probe 807 (0.43412 0.6002 0)
# Probe 808 (0.42179 0.59963 0)
# Probe 809 (0.4318 0.62325 0)
# Probe 810 (0.44424 0.63121 0)
# Probe 811 (0.48114 0.71263 0)
# Probe 812 (0.47679 0.6977 0)
# Probe 813 (0.29479 0.78805 0)
# Probe 814 (0.27355 0.76136 0)
# Probe 815 (0.61481 0.37453 0)
# Probe 816 (0.53625 0.38133 0)
# Probe 817 (0.52885 0.40406 0)
# Probe 818 (0.5503 0.39822 0)
# Probe 819 (0.47034 0.39798 0)
# Probe 820 (0.49478 0.29002 0)
# Probe 821 (0.46332 0.29338 0)
# Probe 822 (0.42969 0.30134 0)
# Probe 823 (0.6139 0.7755 0)
# Probe 824 (0.66351 0.42997 0)
# Probe 825 (0.64127 0.43061 0)
# Probe 826 (0.65128 0.44947 0)
# Probe 827 (0.35507 0.84071 0)
# Probe 828 (0.38307 0.42136 0)
# Probe 829 (0.44559 0.60242 0)
# Probe 830 (0.79859 0.42483 0)
# Probe 831 (0.76635 0.41953 0)
# Probe 832 (0.45604 0.50108 0)
# Probe 833 (0.49606 0.71522 0)
# Probe 834 (0.45025 0.23406 0)
# Probe 835 (0.07821 0.76413 0)
# Probe 836 (0.80302 0.78702 0)
# Probe 837 (0.36127 0.27513 0)
# Probe 838 (0.37912 0.30575 0)
# Probe 839 (0.34498 0.31209 0)
# Probe 840 (0.50485 0.80368 0)
# Probe 841 (0.20068 0.63218 0)
# Probe 842 (0.52624 0.47431 0)
# Probe 843 (0.0905 0.51129 0)
# Probe 844 (0.57775 0.19365 0)
# Probe 845 (0.49024 0.70251 0)
# Probe 846 (0.50882 0.71598 0)
# Probe 847 (0.50444 0.51619 0)
# Probe 848 (0.21898 0.45843 0)
# Probe 849 (0.25602 0.45042 0)
# Probe 850 (0.75546 0.29975 0)
# Probe 851 (0.74138 0.33239 0)
# Probe 852 (0.72209 0.30719 0)
# Probe 853 (0.75841 0.36508 0)
# Probe 854 (0.72453 0.3608 0)
# Probe 855 (0.72894 0.2703 0)
# Probe 856 (0.66007 0.67003 0)
# Probe 857 (0.32218 0.81479 0)
# Probe 858 (0.49581 0.52277 0)
# Probe 859 (0.47846 0.53779 0)
# Probe 860 (0.55501 0.50164 0)
# Probe 861 (0.54765 0.4929 0)
# Probe 862 (0.53874 0.48212 0)
# Probe 863 (0.46118 0.56404 0)
# Probe 864 (0.19281 0.53014 0)
# Probe 865 (0.2311 0.52344 0)
# Probe 866 (0.24254 0.48553 0)
# Probe 867 (0.58701 0.50498 0)
# Probe 868 (0.73467 0.56092 0)
# Probe 869 (0.65381 0.68241 0)
# Probe 870 (0.75151 0.39574 0)
# Probe 871 (0.60663 0.70747 0)
# Probe 872 (0.61548 0.71381 0)
# Probe 873 (0.59719 0.72043 0)
# Probe 874 (0.62412 0.69758 0)
# Probe 875 (0.86694 0.93283 0)
# Probe 876 (0.45488 0.63596 0)
# Probe 877 (0.7458 0.85284 0)
# Probe 878 (0.78684 0.85025 0)
# Probe 879 (0.63445 0.69182 0)
# Probe 880 (0.24455 0.38575 0)
# Probe 881 (0.64705 0.54544 0)
# Probe 882 (0.63259 0.52716 0)
# Probe 883 (0.66202 0.64728 0)
# Probe 884 (0.66226 0.57344 0)
# Probe 885 (0.66513 0.58367 0)
# Probe 886 (0.67232 0.57572 0)
# Probe 887 (0.7378 0.70762 0)
# Probe 888 (0.79841 0.91835 0)
# Probe 889 (0.65302 0.55425 0)
# Probe 890 (0.66009 0.54295 0)
# Probe 891 (0.04069 0.57518 0)
# Probe 892 (0.07457 0.60007 0)
# Probe 893 (0.04133 0.67508 0)
# Probe 894 (0.083 0.69867 0)
# Probe 895 (0.47325 0.67456 0)
# Probe 896 (0.6655 0.63721 0)
# Probe 897 (0.668 0.60486 0)
# Probe 898 (0.61744 0.51572 0)
# Probe 899 (0.682 0.95563 0)
# Probe 900 (0.64109 0.94481 0)
# Probe 901 (0.2342 0.76222 0)
# Probe 902 (0.5331 0.71578 0)
# Probe 903 (0.52365 0.04792 0)
# Probe 904 (0.66251 0.46791 0)
# Probe 905 (0.22453 0.95546 0)
# Probe 906 (0.36929 0.63046 0)
# Probe 907 (0.59729 0.08622 0)
# Probe 908 (0.63863 0.08517 0)
# Probe 909 (0.66208 0.11907 0)
# Probe 910 (0.68677 0.08229 0)
# Probe 911 (0.70787 0.12729 0)
# Probe 912 (0.32014 0.56985 0)
# Probe 913 (0.34575 0.56453 0)
# Probe 914 (0.3376 0.5859 0)
# Probe 915 (0.3115 0.59522 0)
# Probe 916 (0.38087 0.95789 0)
# Probe 917 (0.95505 0.53041 0)
# Probe 918 (0.94992 0.82539 0)
# Probe 919 (0.55454 0.7189 0)
# Probe 920 (0.7095 0.33708 0)
# Probe 921 (0.47927 0.5037 0)
# Probe 922 (0.2004 0.73559 0)
# Probe 923 (0.23654 0.72208 0)
# Probe 924 (0.06553 0.27237 0)
# Probe 925 (0.95755 0.42682 0)
# Probe 926 (0.92249 0.44662 0)
# Probe 927 (0.9226 0.40317 0)
# Probe 928 (0.95898 0.37616 0)
# Probe 929 (0.91477 0.3531 0)
# Probe 930 (0.91627 0.30081 0)
# Probe 931 (0.68637 0.48673 0)
# Probe 932 (0.48275 0.85325 0)
# Probe 933 (0.63398 0.3929 0)
# Probe 934 (0.44679 0.64292 0)
# Probe 935 (0.04297 0.47799 0)
# Probe 936 (0.0487 0.43019 0)
# Probe 937 (0.08935 0.40387 0)
# Probe 938 (0.6456 0.46815 0)
# Probe 939 (0.91337 0.14709 0)
# Probe 940 (0.92753 0.09958 0)
# Probe 941 (0.04392 0.32034 0)
# Probe 942 (0.6959 0.65324 0)
# Probe 943 (0.28005 0.37709 0)
# Probe 944 (0.27679 0.04123 0)
# Probe 945 (0.30257 0.07698 0)
# Probe 946 (0.40542 0.4039 0)
# Probe 947 (0.66803 0.56534 0)
# Probe 948 (0.30995 0.75551 0)
# Probe 949 (0.48668 0.48092 0)
# Probe 950 (0.66384 0.5545 0)
# Probe 951 (0.45993 0.32201 0)
# Probe 952 (0.12635 0.95841 0)
# Probe 953 (0.22721 0.04146 0)
# Probe 954 (0.20084 0.08525 0)
# Probe 955 (0.67667 0.58747 0)
# Probe 956 (0.08614 0.46935 0)
# Probe 957 (0.87629 0.03946 0)
# Probe 958 (0.70388 0.70737 0)
# Probe 959 (0.23396 0.22674 0)
# Probe 960 (0.21541 0.26649 0)
# Probe 961 (0.45719 0.57445 0)
# Probe 962 (0.72379 0.50595 0)
# Probe 963 (0.53563 0.49521 0)
# Probe 964 (0.37168 0.04156 0)
# Probe 965 (0.14744 0.24338 0)
# Probe 966 (0.64725 0.80005 0)
# Probe 967 (0.12508 0.04179 0)
# Probe 968 (0.10437 0.08687 0)
# Probe 969 (0.91333 0.49024 0)
# Probe 970 (0.6218 0.04145 0)