# Probe 0 (0 0 0)
# Probe 1 (1 0 0)
# Probe 2 (1 1 0)
# Probe 3 (0 1 0)
# Probe 4 (0.44 0.54 0)
# Probe 5 (0.34 0.44 0)
# Probe 6 (0.24 0.54 0)
# Probe 7 (0.34 0.64 0)
# Probe 8 (0.05 0 0)
# Probe 9 (0.1 0 0)
# Probe 10 (0.15 0 0)
# Probe 11 (0.2 0 0)
# Probe 12 (0.25 0 0)
# Probe 13 (0.3 0 0)
# Probe 14 (0.35 0 0)
# Probe 15 (0.4 0 0)
# Probe 16 (0.45 0 0)
# Probe 17 (0.5 0 0)
# Probe 18 (0.55 0 0)
# Probe 19 (0.6 0 0)
# Probe 20 (0.65 0 0)
# Probe 21 (0.7 0 0)
# Probe 22 (0.75 0 0)
# Probe 23 (0.8 0 0)
# Probe 24 (0.85 0 0)
# Probe 25 (0.9 0 0)
# Probe 26 (0.95 0 0)
# Probe 27 (1 0.05 0)
# Probe 28 (1 0.1 0)
# Probe 29 (1 0.15 0)
# Probe 30 (1 0.2 0)
# Probe 31 (1 0.25 0)
# Probe 32 (1 0.3 0)
# Probe 33 (1 0.35 0)
# Probe 34 (1 0.4 0)
# Probe 35 (1 0.45 0)
# Probe 36 (1 0.5 0)
# Probe 37 (1 0.55 0)
# Probe 38 (1 0.6 0)
# Probe 39 (1 0.65 0)
# Probe 40 (1 0.7 0)
# Probe 41 (1 0.75 0)
# Probe 42 (1 0.8 0)
# Probe 43 (1 0.85 0)
# Probe 44 (1 0.9 0)
# Probe 45 (1 0.95 0)
# Probe 46 (0.95 1 0)
# Probe 47 (0.9 1 0)
# Probe 48 (0.85 1 0)
# Probe 49 (0.8 1 0)
# Probe 50 (0.75 1 0)
# Probe 51 (0.7 1 0)
# Probe 52 (0.65 1 0)
# Probe 53 (0.6 1 0)
# Probe 54 (0.55 1 0)
# Probe 55 (0.5 1 0)
# Probe 56 (0.45 1 0)
# Probe 57 (0.4 1 0)
# Probe 58 (0.35 1 0)
# Probe 59 (0.3 1 0)
# Probe 60 (0.25 1 0)
# Probe 61 (0.2 1 0)
# Probe 62 (0.15 1 0)
# Probe 63 (0.1 1 0)
# Probe 64 (0.05 1 0)
# Probe 65 (0 0.95 0)
# Probe 66 (0 0.9 0)
# Probe 67 (0 0.85 0)
# Probe 68 (0 0.8 0)
# Probe 69 (0 0.75 0)
# Probe 70 (0 0.7 0)
# Probe 71 (0 0.65 0)
# Probe 72 (0 0.6 0)
# Probe 73 (0 0.55 0)
# Probe 74 (0 0.5 0)
# Probe 75 (0 0.45 0)
# Probe 76 (0 0.4 0)
# Probe 77 (0 0.35 0)
# Probe 78 (0 0.3 0)
# Probe 79 (0 0.25 0)
# Probe 80 (0 0.2 0)
# Probe 81 (0 0.15 0)
# Probe 82 (0 0.1 0)
# Probe 83 (0 0.05 0)
# Probe 84 (0.43952 0.5302 0)
# Probe 85 (0.43808 0.52049 0)
# Probe 86 (0.43569 0.51097 0)
# Probe 87 (0.43239 0.50173 0)
# Probe 88 (0.42819 0.49286 0)
# Probe 89 (0.42315 0.48444 0)
# Probe 90 (0.4173 0.47656 0)
# Probe 91 (0.41071 0.46929 0)
# Probe 92 (0.40344 0.4627 0)
# Probe 93 (0.39556 0.45685 0)
# Probe 94 (0.38714 0.45181 0)
# Probe 95 (0.37827 0.44761 0)
# Probe 96 (0.36903 0.44431 0)
# Probe 97 (0.35951 0.44192 0)
# Probe 98 (0.3498 0.44048 0)
# Probe 99 (0.3302 0.44048 0)
# Probe 100 (0.32049 0.44192 0)
# Probe 101 (0.31097 0.44431 0)
# Probe 102 (0.30173 0.44761 0)
# Probe 103 (0.29286 0.45181 0)
# Probe 104 (0.28444 0.45685 0)
# Probe 105 (0.27656 0.4627 0)
# Probe 106 (0.26929 0.46929 0)
# Probe 107 (0.2627 0.47656 0)
# Probe 108 (0.25685 0.48444 0)
# Probe 109 (0.25181 0.49286 0)
# Probe 110 (0.24761 0.50173 0)
# Probe 111 (0.24431 0.51097 0)
# Probe 112 (0.24192 0.52049 0)
# Probe 113 (0.24048 0.5302 0)
# Probe 114 (0.24048 0.5498 0)
# Probe 115 (0.24192 0.55951 0)
# Probe 116 (0.24431 0.56903 0)
# Probe 117 (0.24761 0.57827 0)
# Probe 118 (0.25181 0.58714 0)
# Probe 119 (0.25685 0.59556 0)
# Probe 120 (0.2627 0.60344 0)
# Probe 121 (0.26929 0.61071 0)
# Probe 122 (0.27656 0.6173 0)
# Probe 123 (0.28444 0.62315 0)
# Probe 124 (0.29286 0.62819 0)
# Probe 125 (0.30173 0.63239 0)
# Probe 126 (0.31097 0.63569 0)
# Probe 127 (0.32049 0.63808 0)
# Probe 128 (0.3302 0.63952 0)
# Probe 129 (0.3498 0.63952 0)
# Probe 130 (0.35951 0.63808 0)
# Probe 131 (0.36903 0.63569 0)
# Probe 132 (0.37827 0.63239 0)
# Probe 133 (0.38714 0.62819 0)
# Probe 134 (0.39556 0.62315 0)
# Probe 135 (0.40344 0.6173 0)
# Probe 136 (0.41071 0.61071 0)
# Probe 137 (0.4173 0.60344 0)
# Probe 138 (0.42315 0.59556 0)
# Probe 139 (0.42819 0.58714 0)
# Probe 140 (0.43239 0.57827 0)
# Probe 141 (0.43569 0.56903 0)
# Probe 142 (0.43808 0.55951 0)
# Probe 143 (0.43952 0.5498 0)
# Probe 144 (0.95005 0.32908 0)
# Probe 145 (0.95778 0.6796 0)
# Probe 146 (0.62835 0.04485 0)
# Probe 147 (0.67015 0.95175 0)
# Probe 148 (0.47834 0.04392 0)
# Probe 149 (0.275 0.0433 0)
# Probe 150 (0.52211 0.96079 0)
# Probe 151 (0.96015 0.52116 0)
# Probe 152 (0.04421 0.26754 0)
# Probe 153 (0.21956 0.95465 0)
# Probe 154 (0.23175 0.53468 0)
# Probe 155 (0.03914 0.77532 0)
# Probe 156 (0.3747 0.95939 0)
# Probe 157 (0.77241 0.04153 0)
# Probe 158 (0.03875 0.42414 0)
# Probe 159 (0.23688 0.50377 0)
# Probe 160 (0.82609 0.96059 0)
# Probe 161 (0.04088 0.62175 0)
# Probe 162 (0.23796 0.57651 0)
# Probe 163 (0.04422 0.52171 0)
# Probe 164 (0.9567 0.175 0)
# Probe 165 (0.9567 0.825 0)
# Probe 166 (0.04214 0.17376 0)
# Probe 167 (0.17661 0.04314 0)
# Probe 168 (0.37677 0.04771 0)
# Probe 169 (0.95698 0.42682 0)
# Probe 170 (0.03853 0.87419 0)
# Probe 171 (0.87506 0.04143 0)
# Probe 172 (0.12469 0.95912 0)
# Probe 173 (0.92418 0.95884 0)
# Probe 174 (0.04913 0.07974 0)
# Probe 175 (0.9578 0.07521 0)
# Probe 176 (0.04739 0.57351 0)
# Probe 177 (0.0803 0.60084 0)
# Probe 178 (0.07988 0.63923 0)
# Probe 179 (0.11354 0.61536 0)
# Probe 180 (0.11543 0.65155 0)
# Probe 181 (0.25295 0.60456 0)
# Probe 182 (0.11087 0.58297 0)
# Probe 183 (0.14153 0.63322 0)
# Probe 184 (0.14374 0.66291 0)
# Probe 185 (0.16998 0.64404 0)
# Probe 186 (0.17015 0.67307 0)
# Probe 187 (0.27636 0.62577 0)
# Probe 188 (0.16533 0.61853 0)
# Probe 189 (0.19248 0.65894 0)
# Probe 190 (0.19507 0.68481 0)
# Probe 191 (0.17257 0.70047 0)
# Probe 192 (0.19876 0.71176 0)
# Probe 193 (0.17544 0.7289 0)
# Probe 194 (0.20207 0.73947 0)
# Probe 195 (0.22474 0.72246 0)
# Probe 196 (0.30349 0.64204 0)
# Probe 197 (0.22844 0.74958 0)
# Probe 198 (0.24952 0.73362 0)
# Probe 199 (0.25413 0.76 0)
# Probe 200 (0.27331 0.7443 0)
# Probe 201 (0.33468 0.64825 0)
# Probe 202 (0.2801 0.76971 0)
# Probe 203 (0.30101 0.75168 0)
# Probe 204 (0.30566 0.77999 0)
# Probe 205 (0.32546 0.76302 0)
# Probe 206 (0.20673 0.76855 0)
# Probe 207 (0.33135 0.79053 0)
# Probe 208 (0.35198 0.76898 0)
# Probe 209 (0.36694 0.6457 0)
# Probe 210 (0.35778 0.80017 0)
# Probe 211 (0.3795 0.78224 0)
# Probe 212 (0.37708 0.75465 0)
# Probe 213 (0.40168 0.76474 0)
# Probe 214 (0.40607 0.79019 0)
# Probe 215 (0.42695 0.77222 0)
# Probe 216 (0.4219 0.74754 0)
# Probe 217 (0.4456 0.7553 0)
# Probe 218 (0.40472 0.62727 0)
# Probe 219 (0.43856 0.72797 0)
# Probe 220 (0.46321 0.73786 0)
# Probe 221 (0.45866 0.71462 0)
# Probe 222 (0.48158 0.72221 0)
# Probe 223 (0.47658 0.69888 0)
# Probe 224 (0.49978 0.70551 0)
# Probe 225 (0.43323 0.59588 0)
# Probe 226 (0.50512 0.73025 0)
# Probe 227 (0.52357 0.71292 0)
# Probe 228 (0.51785 0.6882 0)
# Probe 229 (0.54196 0.69526 0)
# Probe 230 (0.53566 0.67098 0)
# Probe 231 (0.56012 0.67762 0)
# Probe 232 (0.55373 0.6533 0)
# Probe 233 (0.57826 0.65979 0)
# Probe 234 (0.57157 0.63679 0)
# Probe 235 (0.5966 0.64186 0)
# Probe 236 (0.58601 0.61653 0)
# Probe 237 (0.61501 0.62375 0)
# Probe 238 (0.60835 0.59787 0)
# Probe 239 (0.62236 0.64985 0)
# Probe 240 (0.44666 0.55607 0)
# Probe 241 (0.63509 0.60515 0)
# Probe 242 (0.62803 0.57881 0)
# Probe 243 (0.56416 0.70007 0)
# Probe 244 (0.60242 0.57189 0)
# Probe 245 (0.62103 0.55305 0)
# Probe 246 (0.59586 0.54641 0)
# Probe 247 (0.61398 0.52748 0)
# Probe 248 (0.44764 0.5251 0)
# Probe 249 (0.63982 0.53386 0)
# Probe 250 (0.6324 0.50748 0)
# Probe 251 (0.6059 0.50145 0)
# Probe 252 (0.62383 0.48114 0)
# Probe 253 (0.59672 0.47489 0)
# Probe 254 (0.61472 0.45413 0)
# Probe 255 (0.58782 0.44797 0)
# Probe 256 (0.6065 0.42622 0)
# Probe 257 (0.5801 0.42142 0)
# Probe 258 (0.42705 0.47544 0)
# Probe 259 (0.59884 0.39933 0)
# Probe 260 (0.56778 0.39537 0)
# Probe 261 (0.62159 0.40654 0)
# Probe 262 (0.58981 0.37159 0)
# Probe 263 (0.56039 0.36515 0)
# Probe 264 (0.64963 0.48818 0)
# Probe 265 (0.58123 0.34224 0)
# Probe 266 (0.55135 0.33602 0)
# Probe 267 (0.53279 0.3568 0)
# Probe 268 (0.40471 0.4536 0)
# Probe 269 (0.52201 0.32893 0)
# Probe 270 (0.5417 0.30687 0)
# Probe 271 (0.51142 0.30155 0)
# Probe 272 (0.49229 0.32326 0)
# Probe 273 (0.48158 0.29682 0)
# Probe 274 (0.46331 0.31903 0)
# Probe 275 (0.3778 0.43894 0)
# Probe 276 (0.45335 0.29247 0)
# Probe 277 (0.43584 0.31383 0)
# Probe 278 (0.42597 0.28808 0)
# Probe 279 (0.4092 0.30866 0)
# Probe 280 (0.34568 0.43151 0)
# Probe 281 (0.39911 0.28369 0)
# Probe 282 (0.38188 0.30848 0)
# Probe 283 (0.37266 0.2797 0)
# Probe 284 (0.35651 0.29927 0)
# Probe 285 (0.34623 0.27451 0)
# Probe 286 (0.32962 0.29868 0)
# Probe 287 (0.27544 0.45295 0)
# Probe 288 (0.3036 0.43758 0)
# Probe 289 (0.31943 0.27015 0)
# Probe 290 (0.30114 0.29203 0)
# Probe 291 (0.29196 0.26486 0)
# Probe 292 (0.27473 0.28738 0)
# Probe 293 (0.53138 0.27728 0)
# Probe 294 (0.26325 0.26558 0)
# Probe 295 (0.419 0.26176 0)
# Probe 296 (0.56302 0.44425 0)
# Probe 297 (0.54603 0.63164 0)
# Probe 298 (0.44227 0.50348 0)
# Probe 299 (0.47289 0.34368 0)
# Probe 300 (0.32451 0.43112 0)
# Probe 301 (0.38738 0.63848 0)
# Probe 302 (0.44204 0.57651 0)
# Probe 303 (0.42034 0.61308 0)
# Probe 304 (0.25984 0.4671 0)
# Probe 305 (0.28311 0.31299 0)
# Probe 306 (0.25777 0.30917 0)
# Probe 307 (0.45346 0.77909 0)
# Probe 308 (0.31091 0.2432 0)
# Probe 309 (0.26578 0.33376 0)
# Probe 310 (0.24021 0.32929 0)
# Probe 311 (0.41875 0.33358 0)
# Probe 312 (0.29142 0.34044 0)
# Probe 313 (0.36355 0.32329 0)
# Probe 314 (0.50857 0.6631 0)
# Probe 315 (0.24864 0.35404 0)
# Probe 316 (0.22352 0.34965 0)
# Probe 317 (0.21371 0.32653 0)
# Probe 318 (0.23244 0.37358 0)
# Probe 319 (0.20677 0.36992 0)
# Probe 320 (0.41723 0.72343 0)
# Probe 321 (0.21797 0.3954 0)
# Probe 322 (0.30899 0.80839 0)
# Probe 323 (0.57636 0.49643 0)
# Probe 324 (0.18843 0.38866 0)
# Probe 325 (0.19917 0.4149 0)
# Probe 326 (0.45434 0.692 0)
# Probe 327 (0.32064 0.73985 0)
# Probe 328 (0.65536 0.58591 0)
# Probe 329 (0.52962 0.73842 0)
# Probe 330 (0.56301 0.28264 0)
# Probe 331 (0.55177 0.25098 0)
# Probe 332 (0.58588 0.25725 0)
# Probe 333 (0.57717 0.22345 0)
# Probe 334 (0.61383 0.23082 0)
# Probe 335 (0.53975 0.21838 0)
# Probe 336 (0.62156 0.26546 0)
# Probe 337 (0.6478 0.23881 0)
# Probe 338 (0.65838 0.27381 0)
# Probe 339 (0.68326 0.24582 0)
# Probe 340 (0.69534 0.2825 0)
# Probe 341 (0.72028 0.2527 0)
# Probe 342 (0.73334 0.29104 0)
# Probe 343 (0.75968 0.26104 0)
# Probe 344 (0.7723 0.29929 0)
# Probe 345 (0.74556 0.32912 0)
# Probe 346 (0.78408 0.33757 0)
# Probe 347 (0.75741 0.36653 0)
# Probe 348 (0.671 0.2093 0)
# Probe 349 (0.79593 0.37531 0)
# Probe 350 (0.76934 0.40405 0)
# Probe 351 (0.24607 0.70574 0)
# Probe 352 (0.80023 0.26903 0)
# Probe 353 (0.78649 0.22844 0)
# Probe 354 (0.25614 0.37724 0)
# Probe 355 (0.80768 0.41285 0)
# Probe 356 (0.78126 0.44136 0)
# Probe 357 (0.17259 0.41014 0)
# Probe 358 (0.18172 0.43552 0)
# Probe 359 (0.16269 0.38473 0)
# Probe 360 (0.56592 0.18909 0)
# Probe 361 (0.52611 0.18352 0)
# Probe 362 (0.66267 0.61382 0)
# Probe 363 (0.68422 0.5934 0)
# Probe 364 (0.69173 0.62319 0)
# Probe 365 (0.71503 0.60137 0)
# Probe 366 (0.72306 0.63309 0)
# Probe 367 (0.75229 0.60329 0)
# Probe 368 (0.75665 0.64215 0)
# Probe 369 (0.7305 0.66669 0)
# Probe 370 (0.76394 0.6776 0)
# Probe 371 (0.73653 0.70257 0)
# Probe 372 (0.77276 0.71353 0)
# Probe 373 (0.74387 0.73976 0)
# Probe 374 (0.77954 0.6203 0)
# Probe 375 (0.78204 0.75151 0)
# Probe 376 (0.75052 0.77904 0)
# Probe 377 (0.71501 0.76574 0)
# Probe 378 (0.79152 0.79108 0)
# Probe 379 (0.8004 0.6877 0)
# Probe 380 (0.73492 0.57351 0)
# Probe 381 (0.36352 0.25308 0)
# Probe 382 (0.75512 0.81944 0)
# Probe 383 (0.82193 0.76261 0)
# Probe 384 (0.81943 0.45028 0)
# Probe 385 (0.25789 0.78978 0)
# Probe 386 (0.57834 0.56447 0)
# Probe 387 (0.1489 0.71836 0)
# Probe 388 (0.15119 0.74849 0)
# Probe 389 (0.15635 0.43089 0)
# Probe 390 (0.16585 0.45552 0)
# Probe 391 (0.55205 0.15302 0)
# Probe 392 (0.19121 0.45991 0)
# Probe 393 (0.17877 0.47893 0)
# Probe 394 (0.24704 0.48428 0)
# Probe 395 (0.1506 0.476 0)
# Probe 396 (0.16133 0.49884 0)
# Probe 397 (0.22209 0.42015 0)
# Probe 398 (0.83475 0.38448 0)
# Probe 399 (0.46994 0.26938 0)
# Probe 400 (0.82884 0.23734 0)
# Probe 401 (0.81507 0.19595 0)
# Probe 402 (0.83243 0.80386 0)
# Probe 403 (0.74348 0.43211 0)
# Probe 404 (0.70295 0.691 0)
# Probe 405 (0.79299 0.47885 0)
# Probe 406 (0.83139 0.48782 0)
# Probe 407 (0.18517 0.50205 0)
# Probe 408 (0.1715 0.52003 0)
# Probe 409 (0.61073 0.34931 0)
# Probe 410 (0.77167 0.18724 0)
# Probe 411 (0.71958 0.3577 0)
# Probe 412 (0.59398 0.1584 0)
# Probe 413 (0.0873 0.67416 0)
# Probe 414 (0.84213 0.27851 0)
# Probe 415 (0.51276 0.14766 0)
# Probe 416 (0.48773 0.17745 0)
# Probe 417 (0.4742 0.14185 0)
# Probe 418 (0.44925 0.17153 0)
# Probe 419 (0.13408 0.49755 0)
# Probe 420 (0.43602 0.13563 0)
# Probe 421 (0.41079 0.1654 0)
# Probe 422 (0.53716 0.11528 0)
# Probe 423 (0.12215 0.4713 0)
# Probe 424 (0.86387 0.77375 0)
# Probe 425 (0.50979 0.75703 0)
# Probe 426 (0.53735 0.76605 0)
# Probe 427 (0.5144 0.78636 0)
# Probe 428 (0.54375 0.79616 0)
# Probe 429 (0.56732 0.77463 0)
# Probe 430 (0.57438 0.8064 0)
# Probe 431 (0.52003 0.81702 0)
# Probe 432 (0.59837 0.78372 0)
# Probe 433 (0.60673 0.817 0)
# Probe 434 (0.58066 0.84072 0)
# Probe 435 (0.61506 0.85231 0)
# Probe 436 (0.64277 0.82734 0)
# Probe 437 (0.80472 0.51672 0)
# Probe 438 (0.8432 0.52574 0)
# Probe 439 (0.80062 0.15363 0)
# Probe 440 (0.75655 0.14588 0)
# Probe 441 (0.58711 0.87734 0)
# Probe 442 (0.84275 0.16279 0)
# Probe 443 (0.87194 0.24621 0)
# Probe 444 (0.65161 0.86429 0)
# Probe 445 (0.21457 0.6694 0)
# Probe 446 (0.21259 0.64683 0)
# Probe 447 (0.23122 0.65559 0)
# Probe 448 (0.22938 0.63606 0)
# Probe 449 (0.2127 0.62744 0)
# Probe 450 (0.19303 0.52023 0)
# Probe 451 (0.18459 0.53924 0)
# Probe 452 (0.23171 0.55492 0)
# Probe 453 (0.15976 0.53912 0)
# Probe 454 (0.17102 0.55849 0)
# Probe 455 (0.19242 0.55953 0)
# Probe 456 (0.85634 0.45928 0)
# Probe 457 (0.47105 0.67754 0)
# Probe 458 (0.45183 0.67101 0)
# Probe 459 (0.46583 0.65833 0)
# Probe 460 (0.44803 0.65295 0)
# Probe 461 (0.45983 0.64045 0)
# Probe 462 (0.43503 0.66424 0)
# Probe 463 (0.43206 0.64816 0)
# Probe 464 (0.41947 0.65866 0)
# Probe 465 (0.42207 0.67457 0)
# Probe 466 (0.40678 0.66864 0)
# Probe 467 (0.1215 0.73635 0)
# Probe 468 (0.1245 0.76967 0)
# Probe 469 (0.24696 0.64214 0)
# Probe 470 (0.24839 0.66199 0)
# Probe 471 (0.76071 0.50734 0)
# Probe 472 (0.39793 0.12964 0)
# Probe 473 (0.37318 0.15932 0)
# Probe 474 (0.3597 0.12329 0)
# Probe 475 (0.33455 0.15402 0)
# Probe 476 (0.40907 0.68448 0)
# Probe 477 (0.39324 0.67838 0)
# Probe 478 (0.396 0.69508 0)
# Probe 479 (0.37947 0.68855 0)
# Probe 480 (0.38241 0.70525 0)
# Probe 481 (0.36575 0.69879 0)
# Probe 482 (0.36331 0.68196 0)
# Probe 483 (0.35007 0.69198 0)
# Probe 484 (0.57246 0.54079 0)
# Probe 485 (0.55604 0.55657 0)
# Probe 486 (0.55035 0.53583 0)
# Probe 487 (0.53544 0.54987 0)
# Probe 488 (0.53023 0.5311 0)
# Probe 489 (0.51661 0.54433 0)
# Probe 490 (0.50906 0.52648 0)
# Probe 491 (0.52103 0.56259 0)
# Probe 492 (0.52438 0.51289 0)
# Probe 493 (0.50648 0.50844 0)
# Probe 494 (0.50352 0.55713 0)
# Probe 495 (0.50732 0.57437 0)
# Probe 496 (0.49104 0.56926 0)
# Probe 497 (0.49446 0.58583 0)
# Probe 498 (0.48767 0.55335 0)
# Probe 499 (0.51919 0.49532 0)
# Probe 500 (0.50156 0.49155 0)
# Probe 501 (0.48972 0.50371 0)
# Probe 502 (0.48473 0.48755 0)
# Probe 503 (0.49626 0.47507 0)
# Probe 504 (0.47931 0.47149 0)
# Probe 505 (0.49049 0.45881 0)
# Probe 506 (0.47347 0.45521 0)
# Probe 507 (0.48507 0.44208 0)
# Probe 508 (0.46747 0.43855 0)
# Probe 509 (0.47947 0.4246 0)
# Probe 510 (0.46146 0.42156 0)
# Probe 511 (0.45021 0.43549 0)
# Probe 512 (0.44239 0.4211 0)
# Probe 513 (0.4982 0.42829 0)
# Probe 514 (0.45495 0.40465 0)
# Probe 515 (0.43677 0.40242 0)
# Probe 516 (0.42496 0.4161 0)
# Probe 517 (0.41926 0.40039 0)
# Probe 518 (0.40873 0.41317 0)
# Probe 519 (0.40274 0.3985 0)
# Probe 520 (0.49204 0.40915 0)
# Probe 521 (0.479 0.58088 0)
# Probe 522 (0.4822 0.5968 0)
# Probe 523 (0.49836 0.60233 0)
# Probe 524 (0.52418 0.58046 0)
# Probe 525 (0.42805 0.3864 0)
# Probe 526 (0.50787 0.46205 0)
# Probe 527 (0.46272 0.46846 0)
# Probe 528 (0.39322 0.41093 0)
# Probe 529 (0.38699 0.39642 0)
# Probe 530 (0.37739 0.40891 0)
# Probe 531 (0.37081 0.39463 0)
# Probe 532 (0.38086 0.38129 0)
# Probe 533 (0.36427 0.37964 0)
# Probe 534 (0.35443 0.39319 0)
# Probe 535 (0.34748 0.37809 0)
# Probe 536 (0.33723 0.395 0)
# Probe 537 (0.3305 0.37717 0)
# Probe 538 (0.32026 0.39162 0)
# Probe 539 (0.51232 0.41341 0)
# Probe 540 (0.46731 0.59149 0)
# Probe 541 (0.47414 0.49952 0)
# Probe 542 (0.47854 0.5142 0)
# Probe 543 (0.34052 0.36227 0)
# Probe 544 (0.56063 0.57963 0)
# Probe 545 (0.31334 0.37534 0)
# Probe 546 (0.30409 0.38997 0)
# Probe 547 (0.31052 0.40491 0)
# Probe 548 (0.29531 0.40382 0)
# Probe 549 (0.26331 0.64902 0)
# Probe 550 (0.26463 0.66822 0)
# Probe 551 (0.27738 0.65782 0)
# Probe 552 (0.27965 0.6743 0)
# Probe 553 (0.39882 0.42474 0)
# Probe 554 (0.34841 0.67575 0)
# Probe 555 (0.33545 0.68494 0)
# Probe 556 (0.67034 0.31095 0)
# Probe 557 (0.48534 0.61373 0)
# Probe 558 (0.50224 0.61993 0)
# Probe 559 (0.2051 0.50499 0)
# Probe 560 (0.37428 0.3651 0)
# Probe 561 (0.39244 0.36735 0)
# Probe 562 (0.32114 0.1171 0)
# Probe 563 (0.29565 0.14832 0)
# Probe 564 (0.29287 0.66181 0)
# Probe 565 (0.29468 0.68032 0)
# Probe 566 (0.2814 0.69155 0)
# Probe 567 (0.29792 0.69824 0)
# Probe 568 (0.29645 0.37587 0)
# Probe 569 (0.18159 0.57689 0)
# Probe 570 (0.20177 0.57659 0)
# Probe 571 (0.47733 0.64531 0)
# Probe 572 (0.68104 0.83739 0)
# Probe 573 (0.69025 0.87722 0)
# Probe 574 (0.30846 0.66894 0)
# Probe 575 (0.22766 0.61899 0)
# Probe 576 (0.21391 0.60981 0)
# Probe 577 (0.85298 0.73224 0)
# Probe 578 (0.89355 0.74125 0)
# Probe 579 (0.34906 0.18849 0)
# Probe 580 (0.87976 0.69265 0)
# Probe 581 (0.67591 0.56574 0)
# Probe 582 (0.35156 0.7096 0)
# Probe 583 (0.39201 0.66247 0)
# Probe 584 (0.22843 0.60166 0)
# Probe 585 (0.15827 0.57914 0)
# Probe 586 (0.81627 0.55516 0)
# Probe 587 (0.85536 0.5649 0)
# Probe 588 (0.5914 0.75253 0)
# Probe 589 (0.62247 0.76093 0)
# Probe 590 (0.61512 0.72948 0)
# Probe 591 (0.64627 0.73789 0)
# Probe 592 (0.63809 0.70655 0)
# Probe 593 (0.87411 0.81728 0)
# Probe 594 (0.84182 0.8477 0)
# Probe 595 (0.88495 0.86196 0)
# Probe 596 (0.34802 0.40802 0)
# Probe 597 (0.55348 0.86431 0)
# Probe 598 (0.4221 0.1011 0)
# Probe 599 (0.46282 0.20596 0)
# Probe 600 (0.53791 0.49906 0)
# Probe 601 (0.65611 0.76899 0)
# Probe 602 (0.53241 0.48049 0)
# Probe 603 (0.66976 0.64825 0)
# Probe 604 (0.82971 0.12044 0)
# Probe 605 (0.8753 0.12597 0)
# Probe 606 (0.10115 0.49901 0)
# Probe 607 (0.11924 0.52358 0)
# Probe 608 (0.46484 0.57691 0)
# Probe 609 (0.46487 0.50973 0)
# Probe 610 (0.46825 0.52342 0)
# Probe 611 (0.4813 0.52754 0)
# Probe 612 (0.47098 0.53679 0)
# Probe 613 (0.42379 0.69276 0)
# Probe 614 (0.15659 0.78329 0)
# Probe 615 (0.12851 0.80575 0)
# Probe 616 (0.16368 0.82053 0)
# Probe 617 (0.13332 0.84439 0)
# Probe 618 (0.17022 0.85854 0)
# Probe 619 (0.20008 0.83474 0)
# Probe 620 (0.20702 0.87217 0)
# Probe 621 (0.23673 0.84788 0)
# Probe 622 (0.24349 0.88522 0)
# Probe 623 (0.2728 0.86168 0)
# Probe 624 (0.27967 0.89856 0)
# Probe 625 (0.30929 0.87495 0)
# Probe 626 (0.17733 0.8959 0)
# Probe 627 (0.46046 0.49622 0)
# Probe 628 (0.88452 0.28886 0)
# Probe 629 (0.91612 0.2575 0)
# Probe 630 (0.31622 0.91208 0)
# Probe 631 (0.34538 0.8856 0)
# Probe 632 (0.27815 0.11422 0)
# Probe 633 (0.25705 0.14184 0)
# Probe 634 (0.27181 0.1787 0)
# Probe 635 (0.2324 0.17405 0)
# Probe 636 (0.21702 0.13551 0)
# Probe 637 (0.19312 0.16819 0)
# Probe 638 (0.20785 0.20595 0)
# Probe 639 (0.1696 0.20044 0)
# Probe 640 (0.15387 0.16404 0)
# Probe 641 (0.18448 0.23658 0)
# Probe 642 (0.14646 0.23181 0)
# Probe 643 (0.16179 0.26684 0)
# Probe 644 (0.12353 0.26266 0)
# Probe 645 (0.13887 0.29755 0)
# Probe 646 (0.10744 0.22683 0)
# Probe 647 (0.50479 0.39264 0)
# Probe 648 (0.48504 0.38982 0)
# Probe 649 (0.1971 0.26967 0)
# Probe 650 (0.51556 0.608 0)
# Probe 651 (0.51701 0.43306 0)
# Probe 652 (0.53312 0.41839 0)
# Probe 653 (0.38539 0.34996 0)
# Probe 654 (0.36122 0.66781 0)
# Probe 655 (0.88333 0.53397 0)
# Probe 656 (0.89587 0.57429 0)
# Probe 657 (0.86703 0.60526 0)
# Probe 658 (0.90798 0.61759 0)
# Probe 659 (0.49771 0.3736 0)
# Probe 660 (0.09906 0.82721 0)
# Probe 661 (0.33439 0.66879 0)
# Probe 662 (0.09665 0.46642 0)
# Probe 663 (0.11176 0.44187 0)
# Probe 664 (0.21263 0.52191 0)
# Probe 665 (0.60234 0.31866 0)
# Probe 666 (0.41739 0.64386 0)
# Probe 667 (0.42841 0.63418 0)
# Probe 668 (0.19252 0.59182 0)
# Probe 669 (0.19792 0.61749 0)
# Probe 670 (0.30181 0.41732 0)
# Probe 671 (0.28698 0.41695 0)
# Probe 672 (0.28009 0.40123 0)
# Probe 673 (0.271 0.41526 0)
# Probe 674 (0.27887 0.43029 0)
# Probe 675 (0.2622 0.42959 0)
# Probe 676 (0.25393 0.41423 0)
# Probe 677 (0.247 0.43109 0)
# Probe 678 (0.25462 0.44382 0)
# Probe 679 (0.23821 0.44362 0)
# Probe 680 (0.20997 0.56096 0)
# Probe 681 (0.2033 0.5459 0)
# Probe 682 (0.4908 0.80806 0)
# Probe 683 (0.49534 0.83865 0)
# Probe 684 (0.46491 0.82934 0)
# Probe 685 (0.46962 0.86139 0)
# Probe 686 (0.437 0.8497 0)
# Probe 687 (0.44043 0.88712 0)
# Probe 688 (0.47983 0.89305 0)
# Probe 689 (0.45337 0.92408 0)
# Probe 690 (0.40586 0.87405 0)
# Probe 691 (0.33817 0.85138 0)
# Probe 692 (0.1018 0.29438 0)
# Probe 693 (0.11604 0.32864 0)
# Probe 694 (0.07832 0.3254 0)
# Probe 695 (0.09417 0.3597 0)
# Probe 696 (0.15305 0.32903 0)
# Probe 697 (0.85349 0.31851 0)
# Probe 698 (0.72784 0.18016 0)
# Probe 699 (0.71287 0.13855 0)
# Probe 700 (0.74087 0.10541 0)
# Probe 701 (0.69668 0.09671 0)
# Probe 702 (0.66861 0.13069 0)
# Probe 703 (0.56003 0.90447 0)
# Probe 704 (0.59592 0.91683 0)
# Probe 705 (0.21831 0.57543 0)
# Probe 706 (0.40296 0.83686 0)
# Probe 707 (0.90419 0.20934 0)
# Probe 708 (0.14316 0.60464 0)
# Probe 709 (0.6092 0.69806 0)
# Probe 710 (0.34942 0.66017 0)
# Probe 711 (0.1015 0.86973 0)
# Probe 712 (0.38443 0.42169 0)
# Probe 713 (0.36922 0.42135 0)
# Probe 714 (0.28857 0.94197 0)
# Probe 715 (0.84769 0.89105 0)
# Probe 716 (0.80497 0.87616 0)
# Probe 717 (0.19903 0.48663 0)
# Probe 718 (0.21237 0.47183 0)
# Probe 719 (0.28353 0.71003 0)
# Probe 720 (0.21595 0.49209 0)
# Probe 721 (0.23092 0.47372 0)
# Probe 722 (0.27131 0.35779 0)
# Probe 723 (0.89834 0.32801 0)
# Probe 724 (0.52214 0.62654 0)
# Probe 725 (0.94061 0.5869 0)
# Probe 726 (0.26013 0.63457 0)
# Probe 727 (0.20502 0.43775 0)
# Probe 728 (0.2406 0.62591 0)
# Probe 729 (0.2578 0.62125 0)
# Probe 730 (0.45518 0.58732 0)
# Probe 731 (0.45653 0.60018 0)
# Probe 732 (0.37673 0.67101 0)
# Probe 733 (0.37776 0.65588 0)
# Probe 734 (0.03847 0.46954 0)
# Probe 735 (0.22304 0.50689 0)
# Probe 736 (0.31605 0.42043 0)
# Probe 737 (0.32517 0.40735 0)
# Probe 738 (0.47453 0.5639 0)
# Probe 739 (0.46082 0.56409 0)
# Probe 740 (0.45829 0.53329 0)
# Probe 741 (0.46124 0.54573 0)
# Probe 742 (0.25186 0.68396 0)
# Probe 743 (0.24236 0.39566 0)
# Probe 744 (0.09241 0.75924 0)
# Probe 745 (0.36264 0.4079 0)
# Probe 746 (0.35566 0.42121 0)
# Probe 747 (0.07662 0.5446 0)
# Probe 748 (0.66087 0.90433 0)
# Probe 749 (0.3086 0.3183 0)
# Probe 750 (0.31591 0.34094 0)
# Probe 751 (0.33026 0.32415 0)
# Probe 752 (0.44604 0.33953 0)
# Probe 753 (0.45527 0.3641 0)
# Probe 754 (0.42945 0.35524 0)
# Probe 755 (0.27655 0.64474 0)
# Probe 756 (0.2869 0.64735 0)
# Probe 757 (0.55238 0.48483 0)
# Probe 758 (0.21262 0.59155 0)
# Probe 759 (0.13351 0.36193 0)
# Probe 760 (0.11693 0.39247 0)
# Probe 761 (0.39707 0.73619 0)
# Probe 762 (0.37286 0.73264 0)
# Probe 763 (0.35776 0.74507 0)
# Probe 764 (0.50739 0.63994 0)
# Probe 765 (0.22274 0.69636 0)
# Probe 766 (0.089 0.71716 0)
# Probe 767 (0.87893 0.64658 0)
# Probe 768 (0.84264 0.63216 0)
# Probe 769 (0.30162 0.71617 0)
# Probe 770 (0.31741 0.70497 0)
# Probe 771 (0.41357 0.4277 0)
# Probe 772 (0.42868 0.43233 0)
# Probe 773 (0.43737 0.44678 0)
# Probe 774 (0.41534 0.44032 0)
# Probe 775 (0.21926 0.54901 0)
# Probe 776 (0.49872 0.54203 0)
# Probe 777 (0.38943 0.43511 0)
# Probe 778 (0.40334 0.43665 0)
# Probe 779 (0.1744 0.29898 0)
# Probe 780 (0.45589 0.45146 0)
# Probe 781 (0.443 0.46182 0)
# Probe 782 (0.43005 0.45799 0)
# Probe 783 (0.44313 0.63699 0)
# Probe 784 (0.43727 0.62461 0)
# Probe 785 (0.45217 0.62585 0)
# Probe 786 (0.47006 0.62505 0)
# Probe 787 (0.22925 0.45798 0)
# Probe 788 (0.23983 0.46561 0)
# Probe 789 (0.7207 0.8484 0)
# Probe 790 (0.72981 0.88884 0)
# Probe 791 (0.40407 0.65262 0)
# Probe 792 (0.67367 0.70938 0)
# Probe 793 (0.65843 0.68014 0)
# Probe 794 (0.65098 0.08927 0)
# Probe 795 (0.62379 0.12449 0)
# Probe 796 (0.64214 0.17042 0)
# Probe 797 (0.68237 0.04529 0)
# Probe 798 (0.33012 0.42016 0)
# Probe 799 (0.04143 0.67176 0)
# Probe 800 (0.34547 0.08418 0)
# Probe 801 (0.46919 0.48457 0)
# Probe 802 (0.45528 0.48368 0)
# Probe 803 (0.05371 0.35597 0)
# Probe 804 (0.04208 0.72426 0)
# Probe 805 (0.33034 0.95645 0)
# Probe 806 (0.89617 0.91407 0)
# Probe 807 (0.93136 0.875 0)
# Probe 808 (0.62475 0.95775 0)
# Probe 809 (0.56547 0.51921 0)
# Probe 810 (0.49385 0.68187 0)
# Probe 811 (0.21907 0.24 0)
# Probe 812 (0.24357 0.20893 0)
# Probe 813 (0.27628 0.2125 0)
# Probe 814 (0.30923 0.1882 0)
# Probe 815 (0.44564 0.51398 0)
# Probe 816 (0.50106 0.21168 0)
# Probe 817 (0.44987 0.54452 0)
# Probe 818 (0.4336 0.81853 0)
# Probe 819 (0.42149 0.46606 0)
# Probe 820 (0.43292 0.4843 0)
# Probe 821 (0.43815 0.47434 0)
# Probe 822 (0.41244 0.4596 0)
# Probe 823 (0.36722 0.43355 0)
# Probe 824 (0.73077 0.39439 0)
# Probe 825 (0.70708 0.42262 0)
# Probe 826 (0.71802 0.45763 0)
# Probe 827 (0.68484 0.44794 0)
# Probe 828 (0.67804 0.41932 0)
# Probe 829 (0.6951 0.47893 0)
# Probe 830 (0.72628 0.4905 0)
# Probe 831 (0.70007 0.50787 0)
# Probe 832 (0.6592 0.43792 0)
# Probe 833 (0.33515 0.43103 0)
# Probe 834 (0.70825 0.72581 0)
# Probe 835 (0.29385 0.44202 0)
# Probe 836 (0.29367 0.42994 0)
# Probe 837 (0.438 0.49367 0)
# Probe 838 (0.42654 0.03887 0)
# Probe 839 (0.38604 0.19384 0)
# Probe 840 (0.42334 0.20533 0)
# Probe 841 (0.39056 0.22832 0)
# Probe 842 (0.43879 0.23337 0)
# Probe 843 (0.32352 0.04245 0)
# Probe 844 (0.3559 0.64721 0)
# Probe 845 (0.04059 0.21861 0)
# Probe 846 (0.46986 0.60667 0)
# Probe 847 (0.28436 0.4472 0)
# Probe 848 (0.43764 0.58622 0)
# Probe 849 (0.44464 0.56642 0)
# Probe 850 (0.26634 0.82403 0)
# Probe 851 (0.31308 0.64577 0)
# Probe 852 (0.30518 0.65402 0)
# Probe 853 (0.31688 0.65672 0)
# Probe 854 (0.31388 0.43403 0)
# Probe 855 (0.52892 0.64758 0)
# Probe 856 (0.23406 0.51396 0)
# Probe 857 (0.24176 0.49367 0)
# Probe 858 (0.24693 0.59578 0)
# Probe 859 (0.24198 0.60449 0)
# Probe 860 (0.03545 0.82536 0)
# Probe 861 (0.34466 0.64874 0)
# Probe 862 (0.32396 0.64762 0)
# Probe 863 (0.37806 0.64307 0)
# Probe 864 (0.39639 0.63321 0)
# Probe 865 (0.41285 0.62041 0)
# Probe 866 (0.42717 0.60477 0)
# Probe 867 (0.43806 0.60499 0)
# Probe 868 (0.2419 0.58629 0)
# Probe 869 (0.22924 0.5859 0)
# Probe 870 (0.58328 0.58968 0)
# Probe 871 (0.56179 0.60195 0)
# Probe 872 (0.70778 0.32018 0)
# Probe 873 (0.68248 0.34778 0)
# Probe 874 (0.65026 0.33689 0)
# Probe 875 (0.65602 0.37221 0)
# Probe 876 (0.68963 0.3877 0)
# Probe 877 (0.28334 0.63387 0)
# Probe 878 (0.23101 0.54438 0)
# Probe 879 (0.2327 0.52422 0)
# Probe 880 (0.95801 0.47494 0)
# Probe 881 (0.91963 0.4506 0)
# Probe 882 (0.91661 0.40662 0)
# Probe 883 (0.9567 0.3797 0)
# Probe 884 (0.91458 0.49868 0)
# Probe 885 (0.26722 0.4597 0)
# Probe 886 (0.2533 0.4756 0)
# Probe 887 (0.54652 0.46404 0)
# Probe 888 (0.57047 0.46873 0)
# Probe 889 (0.58023 0.11918 0)
# Probe 890 (0.55936 0.08013 0)
# Probe 891 (0.51649 0.07852 0)
# Probe 892 (0.22495 0.04227 0)
# Probe 893 (0.20536 0.09062 0)
# Probe 894 (0.15452 0.0869 0)
# Probe 895 (0.12771 0.04542 0)
# Probe 896 (0.10395 0.08223 0)
# Probe 897 (0.36511 0.34561 0)
# Probe 898 (0.1713 0.96075 0)
# Probe 899 (0.07407 0.39616 0)
# Probe 900 (0.54179 0.38253 0)
# Probe 901 (0.23466 0.56608 0)
# Probe 902 (0.37536 0.85962 0)
# Probe 903 (0.77935 0.54416 0)
# Probe 904 (0.74801 0.54355 0)
# Probe 905 (0.7118 0.80371 0)
# Probe 906 (0.54294 0.59271 0)
# Probe 907 (0.52128 0.8894 0)
# Probe 908 (0.56912 0.95139 0)
# Probe 909 (0.72284 0.95886 0)
# Probe 910 (0.22849 0.80908 0)
# Probe 911 (0.51694 0.24491 0)
# Probe 912 (0.95348 0.63398 0)
# Probe 913 (0.43944 0.70294 0)
# Probe 914 (0.83012 0.59339 0)
# Probe 915 (0.96127 0.72637 0)
# Probe 916 (0.95925 0.77257 0)
# Probe 917 (0.7739 0.95195 0)
# Probe 918 (0.04239 0.12779 0)
# Probe 919 (0.08499 0.15001 0)
# Probe 920 (0.75444 0.46815 0)
# Probe 921 (0.34264 0.41993 0)
# Probe 922 (0.63238 0.30261 0)
# Probe 923 (0.2553 0.08092 0)
# Probe 924 (0.47446 0.96197 0)
# Probe 925 (0.49285 0.51843 0)
# Probe 926 (0.8358 0.69351 0)
# Probe 927 (0.78945 0.58403 0)
# Probe 928 (0.3947 0.3283 0)
# Probe 929 (0.04669 0.92213 0)
# Probe 930 (0.23102 0.49486 0)
# Probe 931 (0.82844 0.04174 0)
# Probe 932 (0.87441 0.96057 0)
# Probe 933 (0.23115 0.27262 0)
# Probe 934 (0.3594 0.22154 0)
# Probe 935 (0.33038 0.21621 0)
# Probe 936 (0.32096 0.67865 0)
# Probe 937 (0.95656 0.12728 0)
# Probe 938 (0.95585 0.22821 0)
# Probe 939 (0.91276 0.15548 0)
# Probe 940 (0.11798 0.68406 0)
# Probe 941 (0.42411 0.96021 0)
# Probe 942 (0.39998 0.91851 0)
# Probe 943 (0.56 0.7458 0)
# Probe 944 (0.60379 0.08306 0)
# Probe 945 (0.39615 0.44603 0)
# Probe 946 (0.40556 0.35099 0)
# Probe 947 (0.39949 0.71277 0)
# Probe 948 (0.41498 0.63109 0)
# Probe 949 (0.35611 0.43275 0)
# Probe 950 (0.38554 0.81018 0)
# Probe 951 (0.48468 0.77681 0)
# Probe 952 (0.27573 0.44282 0)
# Probe 953 (0.95773 0.27749 0)
# Probe 954 (0.58951 0.52213 0)
# Probe 955 (0.47382 0.54912 0)
# Probe 956 (0.81197 0.30804 0)
# Probe 957 (0.73091 0.06559 0)
# Probe 958 (0.41412 0.37154 0)
# Probe 959 (0.38901 0.65026 0)
# Probe 960 (0.29428 0.63869 0)
# Probe 961 (0.74546 0.22123 0)
# Probe 962 (0.60753 0.19544 0)
# Probe 963 (0.14836 0.55962 0)
# Probe 964 (0.70051 0.65608 0)
# Probe 965 (0.68821 0.17449 0)
# Probe 966 (0.44661 0.38643 0)
# Probe 967 (0.48383 0.66378 0)
# Probe 968 (0.47733 0.237 0)
# Probe 969 (0.40602 0.638 0)
# Probe 970 (0.17642 0.12831 0)
# Probe 971 (0.91965 0.09987 0)