# Probe 0 (0 0 0)
# Probe 1 (1 0 0)
# Probe 2 (1 1 0)
# Probe 3 (0 1 0)
# Probe 4 (0.52 0.49 0)
# Probe 5 (0.42 0.39 0)
# Probe 6 (0.32 0.49 0)
# Probe 7 (0.42 0.59 0)
# Probe 8 (0.05 0 0)
# Probe 9 (0.1 0 0)
# Probe 10 (0.15 0 0)
# Probe 11 (0.2 0 0)
# Probe 12 (0.25 0 0)
# Probe 13 (0.3 0 0)
# Probe 14 (0.35 0 0)
# Probe 15 (0.4 0 0)
# Probe 16 (0.45 0 0)
# Probe 17 (0.5 0 0)
# Probe 18 (0.55 0 0)
# Probe 19 (0.6 0 0)
# Probe 20 (0.65 0 0)
# Probe 21 (0.7 0 0)
# Probe 22 (0.75 0 0)
# Probe 23 (0.8 0 0)
# Probe 24 (0.85 0 0)
# Probe 25 (0.9 0 0)
# Probe 26 (0.95 0 0)
# Probe 27 (1 0.05 0)
# Probe 28 (1 0.1 0)
# Probe 29 (1 0.15 0)
# Probe 30 (1 0.2 0)
# Probe 31 (1 0.25 0)
# Probe 32 (1 0.3 0)
# Probe 33 (1 0.35 0)
# Probe 34 (1 0.4 0)
# Probe 35 (1 0.45 0)
# Probe 36 (1 0.5 0)
# Probe 37 (1 0.55 0)
# Probe 38 (1 0.6 0)
# Probe 39 (1 0.65 0)
# Probe 40 (1 0.7 0)
# Probe 41 (1 0.75 0)
# Probe 42 (1 0.8 0)
# Probe 43 (1 0.85 0)
# Probe 44 (1 0.9 0)
# Probe 45 (1 0.95 0)
# Probe 46 (0.95 1 0)
# Probe 47 (0.9 1 0)
# Probe 48 (0.85 1 0)
# Probe 49 (0.8 1 0)
# Probe 50 (0.75 1 0)
# Probe 51 (0.7 1 0)
# Probe 52 (0.65 1 0)
# Probe 53 (0.6 1 0)
# Probe 54 (0.55 1 0)
# Probe 55 (0.5 1 0)
# Probe 56 (0.45 1 0)
# Probe 57 (0.4 1 0)
# Probe 58 (0.35 1 0)
# Probe 59 (0.3 1 0)
# Probe 60 (0.25 1 0)
# Probe 61 (0.2 1 0)
# Probe 62 (0.15 1 0)
# Probe 63 (0.1 1 0)
# Probe 64 (0.05 1 0)
# Probe 65 (0 0.95 0)
# Probe 66 (0 0.9 0)
# Probe 67 (0 0.85 0)
# Probe 68 (0 0.8 0)
# Probe 69 (0 0.75 0)
# Probe 70 (0 0.7 0)
# Probe 71 (0 0.65 0)
# Probe 72 (0 0.6 0)
# Probe 73 (0 0.55 0)
# Probe 74 (0 0.5 0)
# Probe 75 (0 0.45 0)
# Probe 76 (0 0.4 0)
# Probe 77 (0 0.35 0)
# Probe 78 (0 0.3 0)
# Probe 79 (0 0.25 0)
# Probe 80 (0 0.2 0)
# Probe 81 (0 0.15 0)
# Probe 82 (0 0.1 0)
# Probe 83 (0 0.05 0)
# Probe 84 (0.51952 0.4802 0)
# Probe 85 (0.51808 0.47049 0)
# Probe 86 (0.51569 0.46097 0)
# Probe 87 (0.51239 0.45173 0)
# Probe 88 (0.50819 0.44286 0)
# Probe 89 (0.50315 0.43444 0)
# Probe 90 (0.4973 0.42656 0)
# Probe 91 (0.49071 0.41929 0)
# Probe 92 (0.48344 0.4127 0)
# Probe 93 (0.47556 0.40685 0)
# Probe 94 (0.46714 0.40181 0)
# Probe 95 (0.45827 0.39761 0)
# Probe 96 (0.44903 0.39431 0)
# Probe 97 (0.43951 0.39192 0)
# Probe 98 (0.4298 0.39048 0)
# Probe 99 (0.4102 0.39048 0)
# Probe 100 (0.40049 0.39192 0)
# Probe 101 (0.39097 0.39431 0)
# Probe 102 (0.38173 0.39761 0)
# Probe 103 (0.37286 0.40181 0)
# Probe 104 (0.36444 0.40685 0)
# Probe 105 (0.35656 0.4127 0)
# Probe 106 (0.34929 0.41929 0)
# Probe 107 (0.3427 0.42656 0)
# Probe 108 (0.33685 0.43444 0)
# Probe 109 (0.33181 0.44286 0)
# Probe 110 (0.32761 0.45173 0)
# Probe 111 (0.32431 0.46097 0)
# Probe 112 (0.32192 0.47049 0)
# Probe 113 (0.32048 0.4802 0)
# Probe 114 (0.32048 0.4998 0)
# Probe 115 (0.32192 0.50951 0)
# Probe 116 (0.32431 0.51903 0)
# Probe 117 (0.32761 0.52827 0)
# Probe 118 (0.33181 0.53714 0)
# Probe 119 (0.33685 0.54556 0)
# Probe 120 (0.3427 0.55344 0)
# Probe 121 (0.34929 0.56071 0)
# Probe 122 (0.35656 0.5673 0)
# Probe 123 (0.36444 0.57315 0)
# Probe 124 (0.37286 0.57819 0)
# Probe 125 (0.38173 0.58239 0)
# Probe 126 (0.39097 0.58569 0)
# Probe 127 (0.40049 0.58808 0)
# Probe 128 (0.4102 0.58952 0)
# Probe 129 (0.4298 0.58952 0)
# Probe 130 (0.43951 0.58808 0)
# Probe 131 (0.44903 0.58569 0)
# Probe 132 (0.45827 0.58239 0)
# Probe 133 (0.46714 0.57819 0)
# Probe 134 (0.47556 0.57315 0)
# Probe 135 (0.48344 0.5673 0)
# Probe 136 (0.49071 0.56071 0)
# Probe 137 (0.4973 0.55344 0)
# Probe 138 (0.50315 0.54556 0)
# Probe 139 (0.50819 0.53714 0)
# Probe 140 (0.51239 0.52827 0)
# Probe 141 (0.51569 0.51903 0)
# Probe 142 (0.51808 0.50951 0)
# Probe 143 (0.51952 0.4998 0)
# Probe 144 (0.9567 0.275 0)
# Probe 145 (0.96048 0.67412 0)
# Probe 146 (0.675 0.9567 0)
# Probe 147 (0.675 0.0433 0)
# Probe 148 (0.96233 0.42512 0)
# Probe 149 (0.26894 0.95144 0)
# Probe 150 (0.52246 0.95711 0)
# Probe 151 (0.03882 0.72586 0)
# Probe 152 (0.28266 0.04856 0)
# Probe 153 (0.52378 0.04154 0)
# Probe 154 (0.03758 0.27458 0)
# Probe 155 (0.04147 0.5705 0)
# Probe 156 (0.0372 0.42215 0)
# Probe 157 (0.82833 0.95573 0)
# Probe 158 (0.82242 0.04053 0)
# Probe 159 (0.9567 0.825 0)
# Probe 160 (0.04276 0.17588 0)
# Probe 161 (0.0392 0.82517 0)
# Probe 162 (0.42681 0.04696 0)
# Probe 163 (0.17052 0.03833 0)
# Probe 164 (0.42617 0.96119 0)
# Probe 165 (0.17168 0.95086 0)
# Probe 166 (0.9573 0.5266 0)
# Probe 167 (0.95733 0.17614 0)
# Probe 168 (0.92026 0.95771 0)
# Probe 169 (0.04806 0.92496 0)
# Probe 170 (0.04241 0.07758 0)
# Probe 171 (0.92487 0.03753 0)
# Probe 172 (0.47606 0.04205 0)
# Probe 173 (0.50042 0.08086 0)
# Probe 174 (0.54396 0.08141 0)
# Probe 175 (0.52212 0.11729 0)
# Probe 176 (0.5615 0.11843 0)
# Probe 177 (0.54106 0.15062 0)
# Probe 178 (0.49907 0.15376 0)
# Probe 179 (0.5781 0.15196 0)
# Probe 180 (0.55446 0.18541 0)
# Probe 181 (0.59409 0.1842 0)
# Probe 182 (0.57654 0.21348 0)
# Probe 183 (0.46634 0.39203 0)
# Probe 184 (0.60928 0.21385 0)
# Probe 185 (0.59223 0.24069 0)
# Probe 186 (0.62342 0.24152 0)
# Probe 187 (0.6063 0.26692 0)
# Probe 188 (0.50003 0.41744 0)
# Probe 189 (0.6376 0.26758 0)
# Probe 190 (0.61683 0.29528 0)
# Probe 191 (0.65134 0.29498 0)
# Probe 192 (0.63665 0.3194 0)
# Probe 193 (0.66673 0.32082 0)
# Probe 194 (0.65175 0.34466 0)
# Probe 195 (0.51762 0.44385 0)
# Probe 196 (0.56364 0.24115 0)
# Probe 197 (0.68065 0.34666 0)
# Probe 198 (0.66409 0.37057 0)
# Probe 199 (0.68446 0.29424 0)
# Probe 200 (0.69273 0.37202 0)
# Probe 201 (0.67702 0.3953 0)
# Probe 202 (0.7078 0.39668 0)
# Probe 203 (0.69074 0.42072 0)
# Probe 204 (0.52721 0.4741 0)
# Probe 205 (0.72443 0.4227 0)
# Probe 206 (0.70558 0.44637 0)
# Probe 207 (0.67307 0.44568 0)
# Probe 208 (0.68881 0.46956 0)
# Probe 209 (0.71622 0.47157 0)
# Probe 210 (0.70082 0.4945 0)
# Probe 211 (0.67408 0.49264 0)
# Probe 212 (0.6847 0.51796 0)
# Probe 213 (0.52513 0.51633 0)
# Probe 214 (0.71334 0.52009 0)
# Probe 215 (0.6964 0.54333 0)
# Probe 216 (0.66817 0.54099 0)
# Probe 217 (0.67953 0.56614 0)
# Probe 218 (0.65188 0.56331 0)
# Probe 219 (0.66232 0.58915 0)
# Probe 220 (0.51247 0.54548 0)
# Probe 221 (0.69117 0.59235 0)
# Probe 222 (0.67352 0.61521 0)
# Probe 223 (0.64484 0.61186 0)
# Probe 224 (0.65567 0.63797 0)
# Probe 225 (0.62737 0.63398 0)
# Probe 226 (0.49351 0.5699 0)
# Probe 227 (0.63832 0.66091 0)
# Probe 228 (0.60605 0.65705 0)
# Probe 229 (0.66672 0.66483 0)
# Probe 230 (0.62043 0.68231 0)
# Probe 231 (0.5921 0.68174 0)
# Probe 232 (0.60297 0.70517 0)
# Probe 233 (0.57529 0.70243 0)
# Probe 234 (0.46703 0.58841 0)
# Probe 235 (0.72881 0.37159 0)
# Probe 236 (0.61427 0.31973 0)
# Probe 237 (0.58566 0.72802 0)
# Probe 238 (0.55659 0.72338 0)
# Probe 239 (0.61514 0.7322 0)
# Probe 240 (0.64085 0.21472 0)
# Probe 241 (0.48456 0.40295 0)
# Probe 242 (0.52829 0.49529 0)
# Probe 243 (0.54635 0.69634 0)
# Probe 244 (0.52792 0.7186 0)
# Probe 245 (0.4463 0.59508 0)
# Probe 246 (0.5385 0.74541 0)
# Probe 247 (0.50832 0.74045 0)
# Probe 248 (0.49998 0.71414 0)
# Probe 249 (0.48032 0.73425 0)
# Probe 250 (0.47421 0.70938 0)
# Probe 251 (0.45724 0.72868 0)
# Probe 252 (0.41484 0.59743 0)
# Probe 253 (0.4495 0.70495 0)
# Probe 254 (0.43278 0.72338 0)
# Probe 255 (0.42534 0.70071 0)
# Probe 256 (0.41014 0.7196 0)
# Probe 257 (0.40203 0.69641 0)
# Probe 258 (0.38656 0.71551 0)
# Probe 259 (0.3835 0.59223 0)
# Probe 260 (0.37798 0.69166 0)
# Probe 261 (0.3622 0.71002 0)
# Probe 262 (0.35375 0.68646 0)
# Probe 263 (0.33748 0.70533 0)
# Probe 264 (0.32823 0.6813 0)
# Probe 265 (0.31222 0.7006 0)
# Probe 266 (0.3023 0.67567 0)
# Probe 267 (0.3397 0.56299 0)
# Probe 268 (0.3703 0.7335 0)
# Probe 269 (0.28559 0.6959 0)
# Probe 270 (0.27698 0.6698 0)
# Probe 271 (0.29363 0.72235 0)
# Probe 272 (0.2608 0.71569 0)
# Probe 273 (0.43495 0.7499 0)
# Probe 274 (0.36444 0.58266 0)
# Probe 275 (0.64158 0.53871 0)
# Probe 276 (0.60018 0.63018 0)
# Probe 277 (0.27388 0.7462 0)
# Probe 278 (0.24247 0.74177 0)
# Probe 279 (0.49129 0.68936 0)
# Probe 280 (0.51619 0.76852 0)
# Probe 281 (0.25403 0.77269 0)
# Probe 282 (0.63594 0.36855 0)
# Probe 283 (0.44094 0.68325 0)
# Probe 284 (0.29618 0.64794 0)
# Probe 285 (0.26918 0.64411 0)
# Probe 286 (0.22009 0.76666 0)
# Probe 287 (0.20865 0.73482 0)
# Probe 288 (0.28649 0.77608 0)
# Probe 289 (0.28517 0.6244 0)
# Probe 290 (0.26205 0.62084 0)
# Probe 291 (0.32224 0.53888 0)
# Probe 292 (0.24332 0.63855 0)
# Probe 293 (0.23917 0.61051 0)
# Probe 294 (0.21651 0.63272 0)
# Probe 295 (0.20923 0.6052 0)
# Probe 296 (0.22856 0.58437 0)
# Probe 297 (0.2015 0.57822 0)
# Probe 298 (0.22063 0.55827 0)
# Probe 299 (0.31207 0.49518 0)
# Probe 300 (0.31487 0.51633 0)
# Probe 301 (0.19445 0.55157 0)
# Probe 302 (0.21362 0.53262 0)
# Probe 303 (0.18748 0.52506 0)
# Probe 304 (0.2071 0.50554 0)
# Probe 305 (0.18231 0.62627 0)
# Probe 306 (0.18032 0.49826 0)
# Probe 307 (0.20018 0.47947 0)
# Probe 308 (0.31438 0.46344 0)
# Probe 309 (0.22587 0.48601 0)
# Probe 310 (0.21897 0.46098 0)
# Probe 311 (0.19428 0.4535 0)
# Probe 312 (0.21444 0.43521 0)
# Probe 313 (0.32632 0.43411 0)
# Probe 314 (0.18891 0.42736 0)
# Probe 315 (0.20974 0.40862 0)
# Probe 316 (0.18287 0.40026 0)
# Probe 317 (0.20425 0.382 0)
# Probe 318 (0.23048 0.39037 0)
# Probe 319 (0.22537 0.36431 0)
# Probe 320 (0.34806 0.40897 0)
# Probe 321 (0.25101 0.37298 0)
# Probe 322 (0.24716 0.34651 0)
# Probe 323 (0.22036 0.3371 0)
# Probe 324 (0.24217 0.3197 0)
# Probe 325 (0.26886 0.32899 0)
# Probe 326 (0.40428 0.38275 0)
# Probe 327 (0.37452 0.39107 0)
# Probe 328 (0.26418 0.3026 0)
# Probe 329 (0.28964 0.31228 0)
# Probe 330 (0.28559 0.28593 0)
# Probe 331 (0.30865 0.29629 0)
# Probe 332 (0.30696 0.26975 0)
# Probe 333 (0.32765 0.28053 0)
# Probe 334 (0.26058 0.27478 0)
# Probe 335 (0.32756 0.25255 0)
# Probe 336 (0.35272 0.26724 0)
# Probe 337 (0.43602 0.3827 0)
# Probe 338 (0.35056 0.23622 0)
# Probe 339 (0.37601 0.24715 0)
# Probe 340 (0.37578 0.21932 0)
# Probe 341 (0.32472 0.2264 0)
# Probe 342 (0.38011 0.27363 0)
# Probe 343 (0.40108 0.2575 0)
# Probe 344 (0.40404 0.28598 0)
# Probe 345 (0.42454 0.26808 0)
# Probe 346 (0.4283 0.2922 0)
# Probe 347 (0.38427 0.29775 0)
# Probe 348 (0.44698 0.27752 0)
# Probe 349 (0.44984 0.30315 0)
# Probe 350 (0.31006 0.32098 0)
# Probe 351 (0.17626 0.37267 0)
# Probe 352 (0.39512 0.67542 0)
# Probe 353 (0.27936 0.60419 0)
# Probe 354 (0.72608 0.54604 0)
# Probe 355 (0.23648 0.44262 0)
# Probe 356 (0.46798 0.28725 0)
# Probe 357 (0.47156 0.30915 0)
# Probe 358 (0.34427 0.66057 0)
# Probe 359 (0.21518 0.30855 0)
# Probe 360 (0.70316 0.61958 0)
# Probe 361 (0.46608 0.26343 0)
# Probe 362 (0.74339 0.5216 0)
# Probe 363 (0.75722 0.54998 0)
# Probe 364 (0.77562 0.52211 0)
# Probe 365 (0.79032 0.554 0)
# Probe 366 (0.4307 0.31187 0)
# Probe 367 (0.54898 0.77408 0)
# Probe 368 (0.52745 0.79849 0)
# Probe 369 (0.56124 0.80466 0)
# Probe 370 (0.48834 0.29584 0)
# Probe 371 (0.49019 0.32011 0)
# Probe 372 (0.50672 0.30489 0)
# Probe 373 (0.51018 0.32529 0)
# Probe 374 (0.42129 0.24176 0)
# Probe 375 (0.16831 0.44515 0)
# Probe 376 (0.23274 0.80029 0)
# Probe 377 (0.17351 0.5717 0)
# Probe 378 (0.23591 0.54049 0)
# Probe 379 (0.8099 0.52507 0)
# Probe 380 (0.82555 0.55692 0)
# Probe 381 (0.80466 0.58677 0)
# Probe 382 (0.4721 0.33024 0)
# Probe 383 (0.79423 0.49327 0)
# Probe 384 (0.18468 0.75994 0)
# Probe 385 (0.15362 0.39241 0)
# Probe 386 (0.62672 0.55884 0)
# Probe 387 (0.61766 0.53721 0)
# Probe 388 (0.60453 0.55442 0)
# Probe 389 (0.59316 0.53634 0)
# Probe 390 (0.60709 0.51877 0)
# Probe 391 (0.5834 0.55383 0)
# Probe 392 (0.5875 0.51731 0)
# Probe 393 (0.5982 0.50187 0)
# Probe 394 (0.1739 0.72421 0)
# Probe 395 (0.15893 0.5183 0)
# Probe 396 (0.58015 0.50126 0)
# Probe 397 (0.5898 0.48607 0)
# Probe 398 (0.14599 0.3616 0)
# Probe 399 (0.5276 0.3097 0)
# Probe 400 (0.52936 0.33348 0)
# Probe 401 (0.51341 0.34519 0)
# Probe 402 (0.53029 0.35315 0)
# Probe 403 (0.83031 0.49544 0)
# Probe 404 (0.8137 0.46203 0)
# Probe 405 (0.2995 0.60675 0)
# Probe 406 (0.29344 0.58808 0)
# Probe 407 (0.61365 0.15466 0)
# Probe 408 (0.84136 0.59063 0)
# Probe 409 (0.8177 0.62195 0)
# Probe 410 (0.60848 0.48662 0)
# Probe 411 (0.59942 0.47026 0)
# Probe 412 (0.5813 0.47 0)
# Probe 413 (0.59044 0.45436 0)
# Probe 414 (0.57235 0.45383 0)
# Probe 415 (0.58087 0.43817 0)
# Probe 416 (0.5996 0.43866 0)
# Probe 417 (0.5902 0.42252 0)
# Probe 418 (0.57138 0.42245 0)
# Probe 419 (0.58051 0.40684 0)
# Probe 420 (0.56236 0.4077 0)
# Probe 421 (0.57084 0.39095 0)
# Probe 422 (0.51529 0.3635 0)
# Probe 423 (0.57053 0.51432 0)
# Probe 424 (0.53986 0.83075 0)
# Probe 425 (0.50465 0.82402 0)
# Probe 426 (0.57497 0.8367 0)
# Probe 427 (0.5048 0.28189 0)
# Probe 428 (0.5467 0.34281 0)
# Probe 429 (0.61305 0.42294 0)
# Probe 430 (0.5947 0.80998 0)
# Probe 431 (0.61086 0.84263 0)
# Probe 432 (0.63492 0.81159 0)
# Probe 433 (0.64837 0.84869 0)
# Probe 434 (0.6744 0.81971 0)
# Probe 435 (0.68694 0.85536 0)
# Probe 436 (0.71219 0.8241 0)
# Probe 437 (0.69548 0.78558 0)
# Probe 438 (0.73633 0.79044 0)
# Probe 439 (0.75263 0.82907 0)
# Probe 440 (0.77734 0.79589 0)
# Probe 441 (0.76068 0.75719 0)
# Probe 442 (0.80148 0.76228 0)
# Probe 443 (0.81951 0.801 0)
# Probe 444 (0.84437 0.76632 0)
# Probe 445 (0.14862 0.75191 0)
# Probe 446 (0.15982 0.78912 0)
# Probe 447 (0.55383 0.42242 0)
# Probe 448 (0.54524 0.40878 0)
# Probe 449 (0.59256 0.57015 0)
# Probe 450 (0.57209 0.5674 0)
# Probe 451 (0.6189 0.47039 0)
# Probe 452 (0.78457 0.72445 0)
# Probe 453 (0.85116 0.46463 0)
# Probe 454 (0.83396 0.431 0)
# Probe 455 (0.56429 0.46885 0)
# Probe 456 (0.13761 0.71522 0)
# Probe 457 (0.5876 0.87186 0)
# Probe 458 (0.56416 0.50092 0)
# Probe 459 (0.2551 0.39717 0)
# Probe 460 (0.27325 0.38264 0)
# Probe 461 (0.27678 0.4034 0)
# Probe 462 (0.292 0.39111 0)
# Probe 463 (0.31195 0.59168 0)
# Probe 464 (0.31824 0.6089 0)
# Probe 465 (0.30593 0.57441 0)
# Probe 466 (0.28852 0.5702 0)
# Probe 467 (0.74484 0.72006 0)
# Probe 468 (0.85709 0.62493 0)
# Probe 469 (0.29505 0.40974 0)
# Probe 470 (0.28163 0.42181 0)
# Probe 471 (0.30873 0.39799 0)
# Probe 472 (0.30616 0.38035 0)
# Probe 473 (0.32213 0.38704 0)
# Probe 474 (0.32052 0.37058 0)
# Probe 475 (0.33561 0.37668 0)
# Probe 476 (0.33419 0.36056 0)
# Probe 477 (0.34949 0.36623 0)
# Probe 478 (0.34723 0.34951 0)
# Probe 479 (0.36319 0.35579 0)
# Probe 480 (0.49966 0.35658 0)
# Probe 481 (0.56514 0.55224 0)
# Probe 482 (0.55426 0.56502 0)
# Probe 483 (0.5597 0.5805 0)
# Probe 484 (0.54312 0.57805 0)
# Probe 485 (0.54837 0.59346 0)
# Probe 486 (0.53239 0.59007 0)
# Probe 487 (0.53778 0.60679 0)
# Probe 488 (0.52232 0.60273 0)
# Probe 489 (0.52692 0.62004 0)
# Probe 490 (0.50908 0.61435 0)
# Probe 491 (0.51526 0.63355 0)
# Probe 492 (0.49784 0.62971 0)
# Probe 493 (0.53367 0.63749 0)
# Probe 494 (0.5485 0.54946 0)
# Probe 495 (0.49081 0.61375 0)
# Probe 496 (0.48026 0.6266 0)
# Probe 497 (0.32823 0.59392 0)
# Probe 498 (0.33694 0.60804 0)
# Probe 499 (0.51632 0.85679 0)
# Probe 500 (0.48148 0.85017 0)
# Probe 501 (0.52763 0.57453 0)
# Probe 502 (0.50198 0.37328 0)
# Probe 503 (0.48751 0.36733 0)
# Probe 504 (0.51612 0.37996 0)
# Probe 505 (0.88271 0.5848 0)
# Probe 506 (0.3608 0.33892 0)
# Probe 507 (0.37663 0.34576 0)
# Probe 508 (0.48601 0.64306 0)
# Probe 509 (0.46964 0.63897 0)
# Probe 510 (0.55626 0.4546 0)
# Probe 511 (0.46972 0.81675 0)
# Probe 512 (0.4465 0.84293 0)
# Probe 513 (0.46418 0.62327 0)
# Probe 514 (0.45437 0.63552 0)
# Probe 515 (0.79687 0.42892 0)
# Probe 516 (0.81488 0.39677 0)
# Probe 517 (0.85413 0.39902 0)
# Probe 518 (0.83418 0.36389 0)
# Probe 519 (0.8751 0.36602 0)
# Probe 520 (0.85424 0.33207 0)
# Probe 521 (0.81412 0.32941 0)
# Probe 522 (0.83447 0.29774 0)
# Probe 523 (0.79601 0.29606 0)
# Probe 524 (0.81676 0.26286 0)
# Probe 525 (0.77773 0.2622 0)
# Probe 526 (0.79796 0.22837 0)
# Probe 527 (0.75829 0.22768 0)
# Probe 528 (0.77867 0.19351 0)
# Probe 529 (0.81708 0.195 0)
# Probe 530 (0.73819 0.19409 0)
# Probe 531 (0.75895 0.15848 0)
# Probe 532 (0.71774 0.15902 0)
# Probe 533 (0.73897 0.12202 0)
# Probe 534 (0.86137 0.26404 0)
# Probe 535 (0.55427 0.60768 0)
# Probe 536 (0.76715 0.68868 0)
# Probe 537 (0.78227 0.61667 0)
# Probe 538 (0.58433 0.08629 0)
# Probe 539 (0.52125 0.65363 0)
# Probe 540 (0.37808 0.36218 0)
# Probe 541 (0.39147 0.35274 0)
# Probe 542 (0.55566 0.5122 0)
# Probe 543 (0.75758 0.29441 0)
# Probe 544 (0.12149 0.38374 0)
# Probe 545 (0.1138 0.34971 0)
# Probe 546 (0.13947 0.32935 0)
# Probe 547 (0.71926 0.22974 0)
# Probe 548 (0.2246 0.66007 0)
# Probe 549 (0.43616 0.80384 0)
# Probe 550 (0.41214 0.83466 0)
# Probe 551 (0.40125 0.80192 0)
# Probe 552 (0.37776 0.82804 0)
# Probe 553 (0.38829 0.86298 0)
# Probe 554 (0.35179 0.85509 0)
# Probe 555 (0.36329 0.8912 0)
# Probe 556 (0.32464 0.8834 0)
# Probe 557 (0.83254 0.65811 0)
# Probe 558 (0.59038 0.38988 0)
# Probe 559 (0.57978 0.37267 0)
# Probe 560 (0.30717 0.36291 0)
# Probe 561 (0.86837 0.49894 0)
# Probe 562 (0.36783 0.79475 0)
# Probe 563 (0.53803 0.42244 0)
# Probe 564 (0.52944 0.40945 0)
# Probe 565 (0.30064 0.55789 0)
# Probe 566 (0.28432 0.55333 0)
# Probe 567 (0.29827 0.54116 0)
# Probe 568 (0.28021 0.53702 0)
# Probe 569 (0.32579 0.62487 0)
# Probe 570 (0.2693 0.56779 0)
# Probe 571 (0.39021 0.33585 0)
# Probe 572 (0.40517 0.34348 0)
# Probe 573 (0.29819 0.42702 0)
# Probe 574 (0.28676 0.43866 0)
# Probe 575 (0.34336 0.62621 0)
# Probe 576 (0.35381 0.6123 0)
# Probe 577 (0.3606 0.63001 0)
# Probe 578 (0.86309 0.80577 0)
# Probe 579 (0.83699 0.84203 0)
# Probe 580 (0.88143 0.77237 0)
# Probe 581 (0.78094 0.12055 0)
# Probe 582 (0.69744 0.12223 0)
# Probe 583 (0.62852 0.487 0)
# Probe 584 (0.45829 0.87375 0)
# Probe 585 (0.47397 0.65602 0)
# Probe 586 (0.29365 0.52411 0)
# Probe 587 (0.27612 0.52116 0)
# Probe 588 (0.28728 0.50918 0)
# Probe 589 (0.27154 0.50567 0)
# Probe 590 (0.28271 0.4935 0)
# Probe 591 (0.26673 0.48961 0)
# Probe 592 (0.27891 0.47838 0)
# Probe 593 (0.12008 0.77575 0)
# Probe 594 (0.13109 0.81774 0)
# Probe 595 (0.31508 0.84631 0)
# Probe 596 (0.28618 0.87447 0)
# Probe 597 (0.36943 0.61453 0)
# Probe 598 (0.3766 0.62836 0)
# Probe 599 (0.38465 0.61388 0)
# Probe 600 (0.39174 0.62924 0)
# Probe 601 (0.44905 0.61855 0)
# Probe 602 (0.43925 0.6314 0)
# Probe 603 (0.43423 0.61652 0)
# Probe 604 (0.42192 0.62755 0)
# Probe 605 (0.42876 0.64107 0)
# Probe 606 (0.87426 0.65861 0)
# Probe 607 (0.72939 0.68515 0)
# Probe 608 (0.70808 0.71496 0)
# Probe 609 (0.17312 0.82763 0)
# Probe 610 (0.14639 0.86051 0)
# Probe 611 (0.18604 0.87125 0)
# Probe 612 (0.39933 0.61712 0)
# Probe 613 (0.89531 0.32935 0)
# Probe 614 (0.50478 0.388 0)
# Probe 615 (0.26313 0.47406 0)
# Probe 616 (0.54099 0.65625 0)
# Probe 617 (0.35143 0.38288 0)
# Probe 618 (0.77979 0.39702 0)
# Probe 619 (0.38419 0.64227 0)
# Probe 620 (0.16291 0.68752 0)
# Probe 621 (0.12604 0.67737 0)
# Probe 622 (0.63962 0.47088 0)
# Probe 623 (0.52518 0.42325 0)
# Probe 624 (0.30208 0.442 0)
# Probe 625 (0.72044 0.59623 0)
# Probe 626 (0.8813 0.84707 0)
# Probe 627 (0.39949 0.64344 0)
# Probe 628 (0.32395 0.40327 0)
# Probe 629 (0.15105 0.48945 0)
# Probe 630 (0.1275 0.51164 0)
# Probe 631 (0.11847 0.47959 0)
# Probe 632 (0.09407 0.50299 0)
# Probe 633 (0.10172 0.5362 0)
# Probe 634 (0.10592 0.31412 0)
# Probe 635 (0.135 0.29091 0)
# Probe 636 (0.4049 0.3615 0)
# Probe 637 (0.41895 0.35113 0)
# Probe 638 (0.34265 0.92141 0)
# Probe 639 (0.53632 0.39625 0)
# Probe 640 (0.75802 0.08382 0)
# Probe 641 (0.88825 0.46365 0)
# Probe 642 (0.4195 0.36497 0)
# Probe 643 (0.4324 0.35766 0)
# Probe 644 (0.55998 0.37623 0)
# Probe 645 (0.54913 0.46767 0)
# Probe 646 (0.54366 0.45608 0)
# Probe 647 (0.31586 0.56272 0)
# Probe 648 (0.63161 0.45221 0)
# Probe 649 (0.07693 0.33901 0)
# Probe 650 (0.40433 0.32383 0)
# Probe 651 (0.25344 0.50179 0)
# Probe 652 (0.29283 0.48408 0)
# Probe 653 (0.29128 0.46975 0)
# Probe 654 (0.26922 0.43448 0)
# Probe 655 (0.54877 0.49947 0)
# Probe 656 (0.1319 0.4141 0)
# Probe 657 (0.67871 0.1585 0)
# Probe 658 (0.43201 0.34279 0)
# Probe 659 (0.44564 0.34984 0)
# Probe 660 (0.44503 0.36401 0)
# Probe 661 (0.46001 0.35888 0)
# Probe 662 (0.4566 0.3718 0)
# Probe 663 (0.55739 0.63932 0)
# Probe 664 (0.66221 0.88492 0)
# Probe 665 (0.70234 0.8936 0)
# Probe 666 (0.85077 0.69453 0)
# Probe 667 (0.89297 0.69925 0)
# Probe 668 (0.45987 0.61069 0)
# Probe 669 (0.85573 0.88408 0)
# Probe 670 (0.81331 0.87734 0)
# Probe 671 (0.9155 0.36706 0)
# Probe 672 (0.55973 0.53676 0)
# Probe 673 (0.54282 0.53541 0)
# Probe 674 (0.53498 0.54695 0)
# Probe 675 (0.3447 0.33192 0)
# Probe 676 (0.35723 0.31528 0)
# Probe 677 (0.65884 0.12401 0)
# Probe 678 (0.52973 0.5359 0)
# Probe 679 (0.10438 0.85287 0)
# Probe 680 (0.12124 0.89456 0)
# Probe 681 (0.60021 0.37211 0)
# Probe 682 (0.60882 0.39087 0)
# Probe 683 (0.58902 0.35385 0)
# Probe 684 (0.44502 0.33422 0)
# Probe 685 (0.59684 0.75609 0)
# Probe 686 (0.62822 0.76126 0)
# Probe 687 (0.64863 0.73594 0)
# Probe 688 (0.73421 0.62369 0)
# Probe 689 (0.19233 0.32761 0)
# Probe 690 (0.1863 0.2972 0)
# Probe 691 (0.21102 0.27621 0)
# Probe 692 (0.18109 0.26381 0)
# Probe 693 (0.20804 0.24124 0)
# Probe 694 (0.17403 0.22897 0)
# Probe 695 (0.20398 0.2054 0)
# Probe 696 (0.16789 0.19204 0)
# Probe 697 (0.1987 0.16754 0)
# Probe 698 (0.1612 0.14992 0)
# Probe 699 (0.23505 0.18222 0)
# Probe 700 (0.13237 0.21445 0)
# Probe 701 (0.23013 0.14356 0)
# Probe 702 (0.26746 0.1593 0)
# Probe 703 (0.26178 0.11976 0)
# Probe 704 (0.29967 0.1358 0)
# Probe 705 (0.27049 0.19757 0)
# Probe 706 (0.22452 0.1035 0)
# Probe 707 (0.55576 0.48035 0)
# Probe 708 (0.51609 0.41114 0)
# Probe 709 (0.4919 0.66044 0)
# Probe 710 (0.90212 0.88422 0)
# Probe 711 (0.27474 0.44953 0)
# Probe 712 (0.48514 0.35209 0)
# Probe 713 (0.27819 0.83807 0)
# Probe 714 (0.39961 0.89681 0)
# Probe 715 (0.39041 0.77034 0)
# Probe 716 (0.54336 0.51199 0)
# Probe 717 (0.94252 0.33926 0)
# Probe 718 (0.54532 0.43442 0)
# Probe 719 (0.09847 0.27634 0)
# Probe 720 (0.33971 0.31534 0)
# Probe 721 (0.36535 0.29334 0)
# Probe 722 (0.0833 0.47257 0)
# Probe 723 (0.46362 0.78234 0)
# Probe 724 (0.5626 0.66029 0)
# Probe 725 (0.3959 0.60522 0)
# Probe 726 (0.61162 0.35594 0)
# Probe 727 (0.36134 0.60118 0)
# Probe 728 (0.25017 0.86137 0)
# Probe 729 (0.53297 0.43422 0)
# Probe 730 (0.10254 0.70905 0)
# Probe 731 (0.08266 0.66847 0)
# Probe 732 (0.11478 0.63878 0)
# Probe 733 (0.07689 0.62859 0)
# Probe 734 (0.10584 0.59975 0)
# Probe 735 (0.1462 0.61071 0)
# Probe 736 (0.29254 0.09567 0)
# Probe 737 (0.33012 0.11285 0)
# Probe 738 (0.33734 0.15153 0)
# Probe 739 (0.36814 0.12828 0)
# Probe 740 (0.36104 0.08272 0)
# Probe 741 (0.39989 0.10576 0)
# Probe 742 (0.40386 0.14428 0)
# Probe 743 (0.43879 0.1213 0)
# Probe 744 (0.43702 0.16078 0)
# Probe 745 (0.408 0.17992 0)
# Probe 746 (0.43933 0.19564 0)
# Probe 747 (0.46753 0.17617 0)
# Probe 748 (0.46994 0.20841 0)
# Probe 749 (0.4957 0.19155 0)
# Probe 750 (0.49756 0.22177 0)
# Probe 751 (0.52354 0.20444 0)
# Probe 752 (0.52242 0.23437 0)
# Probe 753 (0.76012 0.42523 0)
# Probe 754 (0.52723 0.67272 0)
# Probe 755 (0.09819 0.40797 0)
# Probe 756 (0.57066 0.4854 0)
# Probe 757 (0.57451 0.52853 0)
# Probe 758 (0.33673 0.39197 0)
# Probe 759 (0.54039 0.47908 0)
# Probe 760 (0.23683 0.4174 0)
# Probe 761 (0.32382 0.57765 0)
# Probe 762 (0.33754 0.58135 0)
# Probe 763 (0.34936 0.60032 0)
# Probe 764 (0.31218 0.41664 0)
# Probe 765 (0.32729 0.41662 0)
# Probe 766 (0.42058 0.61286 0)
# Probe 767 (0.29185 0.33564 0)
# Probe 768 (0.53713 0.56128 0)
# Probe 769 (0.52231 0.56165 0)
# Probe 770 (0.51328 0.57155 0)
# Probe 771 (0.47464 0.61238 0)
# Probe 772 (0.48431 0.5998 0)
# Probe 773 (0.49887 0.60068 0)
# Probe 774 (0.49263 0.58857 0)
# Probe 775 (0.5045 0.58983 0)
# Probe 776 (0.27443 0.35528 0)
# Probe 777 (0.46461 0.68767 0)
# Probe 778 (0.25916 0.90179 0)
# Probe 779 (0.49985 0.25172 0)
# Probe 780 (0.43003 0.6056 0)
# Probe 781 (0.06696 0.53044 0)
# Probe 782 (0.36486 0.37175 0)
# Probe 783 (0.37938 0.37804 0)
# Probe 784 (0.39096 0.36903 0)
# Probe 785 (0.48926 0.38249 0)
# Probe 786 (0.47656 0.37552 0)
# Probe 787 (0.24729 0.56171 0)
# Probe 788 (0.25332 0.58515 0)
# Probe 789 (0.30551 0.52979 0)
# Probe 790 (0.33246 0.64134 0)
# Probe 791 (0.4181 0.67976 0)
# Probe 792 (0.43224 0.66479 0)
# Probe 793 (0.45654 0.66651 0)
# Probe 794 (0.51 0.56136 0)
# Probe 795 (0.23265 0.51565 0)
# Probe 796 (0.3713 0.66792 0)
# Probe 797 (0.1399 0.57479 0)
# Probe 798 (0.65535 0.51388 0)
# Probe 799 (0.5192 0.39559 0)
# Probe 800 (0.04265 0.37553 0)
# Probe 801 (0.57626 0.26541 0)
# Probe 802 (0.5501 0.26598 0)
# Probe 803 (0.56145 0.28715 0)
# Probe 804 (0.26443 0.5329 0)
# Probe 805 (0.56139 0.43883 0)
# Probe 806 (0.31235 0.54819 0)
# Probe 807 (0.42054 0.77628 0)
# Probe 808 (0.87648 0.92693 0)
# Probe 809 (0.31292 0.43301 0)
# Probe 810 (0.31492 0.44641 0)
# Probe 811 (0.91478 0.50148 0)
# Probe 812 (0.88334 0.53767 0)
# Probe 813 (0.41154 0.65966 0)
# Probe 814 (0.37401 0.16414 0)
# Probe 815 (0.34575 0.18253 0)
# Probe 816 (0.30538 0.17739 0)
# Probe 817 (0.45853 0.08378 0)
# Probe 818 (0.58763 0.28908 0)
# Probe 819 (0.56903 0.31086 0)
# Probe 820 (0.61714 0.60966 0)
# Probe 821 (0.59157 0.60645 0)
# Probe 822 (0.5766 0.62519 0)
# Probe 823 (0.63161 0.58469 0)
# Probe 824 (0.77168 0.45989 0)
# Probe 825 (0.49182 0.79091 0)
# Probe 826 (0.62935 0.51875 0)
# Probe 827 (0.65033 0.39393 0)
# Probe 828 (0.65892 0.42064 0)
# Probe 829 (0.6342 0.41365 0)
# Probe 830 (0.32384 0.55227 0)
# Probe 831 (0.53817 0.28741 0)
# Probe 832 (0.24145 0.22347 0)
# Probe 833 (0.27565 0.23207 0)
# Probe 834 (0.4807 0.11706 0)
# Probe 835 (0.15356 0.65067 0)
# Probe 836 (0.52959 0.37134 0)
# Probe 837 (0.47566 0.39715 0)
# Probe 838 (0.45656 0.38826 0)
# Probe 839 (0.50655 0.42581 0)
# Probe 840 (0.52511 0.4638 0)
# Probe 841 (0.52889 0.48478 0)
# Probe 842 (0.75905 0.49433 0)
# Probe 843 (0.52186 0.45355 0)
# Probe 844 (0.29559 0.49793 0)
# Probe 845 (0.30177 0.51021 0)
# Probe 846 (0.35023 0.39622 0)
# Probe 847 (0.47451 0.95946 0)
# Probe 848 (0.49737 0.91806 0)
# Probe 849 (0.54576 0.92064 0)
# Probe 850 (0.57226 0.95787 0)
# Probe 851 (0.62124 0.95751 0)
# Probe 852 (0.73943 0.262 0)
# Probe 853 (0.7213 0.29424 0)
# Probe 854 (0.73537 0.32788 0)
# Probe 855 (0.70279 0.26308 0)
# Probe 856 (0.68465 0.23527 0)
# Probe 857 (0.69512 0.19658 0)
# Probe 858 (0.77437 0.32725 0)
# Probe 859 (0.75389 0.3546 0)
# Probe 860 (0.7906 0.36405 0)
# Probe 861 (0.70245 0.3224 0)
# Probe 862 (0.45713 0.59214 0)
# Probe 863 (0.47565 0.58317 0)
# Probe 864 (0.71553 0.65131 0)
# Probe 865 (0.74851 0.65584 0)
# Probe 866 (0.51211 0.43481 0)
# Probe 867 (0.48628 0.57855 0)
# Probe 868 (0.51814 0.53674 0)
# Probe 869 (0.47435 0.36264 0)
# Probe 870 (0.78728 0.65284 0)
# Probe 871 (0.8079 0.69106 0)
# Probe 872 (0.49278 0.4097 0)
# Probe 873 (0.50362 0.40869 0)
# Probe 874 (0.37402 0.58826 0)
# Probe 875 (0.4041 0.59721 0)
# Probe 876 (0.72181 0.75163 0)
# Probe 877 (0.52685 0.50569 0)
# Probe 878 (0.35587 0.57722 0)
# Probe 879 (0.96021 0.47572 0)
# Probe 880 (0.36186 0.64909 0)
# Probe 881 (0.31274 0.47395 0)
# Probe 882 (0.33958 0.41712 0)
# Probe 883 (0.0393 0.22569 0)
# Probe 884 (0.08472 0.20516 0)
# Probe 885 (0.08369 0.15236 0)
# Probe 886 (0.36499 0.39644 0)
# Probe 887 (0.04017 0.7753 0)
# Probe 888 (0.08111 0.74805 0)
# Probe 889 (0.3464 0.57196 0)
# Probe 890 (0.44624 0.38526 0)
# Probe 891 (0.42546 0.38198 0)
# Probe 892 (0.31218 0.4847 0)
# Probe 893 (0.31197 0.50563 0)
# Probe 894 (0.41469 0.38207 0)
# Probe 895 (0.39252 0.38282 0)
# Probe 896 (0.3587 0.76264 0)
# Probe 897 (0.33666 0.78623 0)
# Probe 898 (0.3296 0.75438 0)
# Probe 899 (0.41383 0.30681 0)
# Probe 900 (0.37774 0.04042 0)
# Probe 901 (0.33245 0.04158 0)
# Probe 902 (0.22535 0.05 0)
# Probe 903 (0.22447 0.95746 0)
# Probe 904 (0.20094 0.91571 0)
# Probe 905 (0.0426 0.12599 0)
# Probe 906 (0.08673 0.10012 0)
# Probe 907 (0.43158 0.37156 0)
# Probe 908 (0.66175 0.76587 0)
# Probe 909 (0.74504 0.39738 0)
# Probe 910 (0.4955 0.3975 0)
# Probe 911 (0.9575 0.2252 0)
# Probe 912 (0.91584 0.20082 0)
# Probe 913 (0.91485 0.15328 0)
# Probe 914 (0.87827 0.17807 0)
# Probe 915 (0.87399 0.132 0)
# Probe 916 (0.91277 0.10758 0)
# Probe 917 (0.87179 0.08952 0)
# Probe 918 (0.82886 0.11582 0)
# Probe 919 (0.91145 0.25489 0)
# Probe 920 (0.08134 0.04612 0)
# Probe 921 (0.1346 0.07586 0)
# Probe 922 (0.73741 0.44818 0)
# Probe 923 (0.37575 0.95731 0)
# Probe 924 (0.625 0.0433 0)
# Probe 925 (0.72938 0.04209 0)
# Probe 926 (0.57823 0.58569 0)
# Probe 927 (0.19912 0.6976 0)
# Probe 928 (0.19357 0.66236 0)
# Probe 929 (0.23521 0.69469 0)
# Probe 930 (0.72671 0.9592 0)
# Probe 931 (0.49696 0.3397 0)
# Probe 932 (0.95949 0.57556 0)
# Probe 933 (0.95924 0.6238 0)
# Probe 934 (0.96177 0.72404 0)
# Probe 935 (0.95831 0.7761 0)
# Probe 936 (0.03946 0.68188 0)
# Probe 937 (0.57164 0.04136 0)
# Probe 938 (0.63102 0.09184 0)
# Probe 939 (0.2453 0.46516 0)
# Probe 940 (0.77458 0.95805 0)
# Probe 941 (0.7431 0.91207 0)
# Probe 942 (0.58046 0.64625 0)
# Probe 943 (0.04011 0.87506 0)
# Probe 944 (0.91885 0.65412 0)
# Probe 945 (0.5928 0.91312 0)
# Probe 946 (0.65156 0.44066 0)
# Probe 947 (0.60552 0.58843 0)
# Probe 948 (0.12297 0.96028 0)
# Probe 949 (0.77023 0.57999 0)
# Probe 950 (0.30772 0.45426 0)
# Probe 951 (0.29265 0.45387 0)
# Probe 952 (0.44186 0.60639 0)
# Probe 953 (0.40953 0.60739 0)
# Probe 954 (0.51658 0.69431 0)
# Probe 955 (0.66989 0.2654 0)
# Probe 956 (0.95709 0.12752 0)
# Probe 957 (0.95173 0.87888 0)
# Probe 958 (0.53492 0.5232 0)
# Probe 959 (0.82623 0.72847 0)
# Probe 960 (0.37535 0.60141 0)
# Probe 961 (0.53623 0.4661 0)
# Probe 962 (0.69503 0.68352 0)
# Probe 963 (0.67139 0.70928 0)
# Probe 964 (0.31271 0.34327 0)
# Probe 965 (0.41284 0.21191 0)
# Probe 966 (0.3433 0.81976 0)
# Probe 967 (0.87656 0.22287 0)
# Probe 968 (0.89063 0.29186 0)
# Probe 969 (0.45168 0.92789 0)
# Probe 970 (0.54587 0.32145 0)
# Probe 971 (0.39628 0.74282 0)
# Probe 972 (0.66414 0.46733 0)