# Probe 0 (0 0 0)
# Probe 1 (1 0 0)
# Probe 2 (1 1 0)
# Probe 3 (0 1 0)
# Probe 4 (0.84 0.33 0)
# Probe 5 (0.74 0.23 0)
# Probe 6 (0.64 0.33 0)
# Probe 7 (0.74 0.43 0)
# Probe 8 (0.05 0 0)
# Probe 9 (0.1 0 0)
# Probe 10 (0.15 0 0)
# Probe 11 (0.2 0 0)
# Probe 12 (0.25 0 0)
# Probe 13 (0.3 0 0)
# Probe 14 (0.35 0 0)
# Probe 15 (0.4 0 0)
# Probe 16 (0.45 0 0)
# Probe 17 (0.5 0 0)
# Probe 18 (0.55 0 0)
# Probe 19 (0.6 0 0)
# Probe 20 (0.65 0 0)
# Probe 21 (0.7 0 0)
# Probe 22 (0.75 0 0)
# Probe 23 (0.8 0 0)
# Probe 24 (0.85 0 0)
# Probe 25 (0.9 0 0)
# Probe 26 (0.95 0 0)
# Probe 27 (1 0.05 0)
# Probe 28 (1 0.1 0)
# Probe 29 (1 0.15 0)
# Probe 30 (1 0.2 0)
# Probe 31 (1 0.25 0)
# Probe 32 (1 0.3 0)
# Probe 33 (1 0.35 0)
# Probe 34 (1 0.4 0)
# Probe 35 (1 0.45 0)
# Probe 36 (1 0.5 0)
# Probe 37 (1 0.55 0)
# Probe 38 (1 0.6 0)
# Probe 39 (1 0.65 0)
# Probe 40 (1 0.7 0)
# Probe 41 (1 0.75 0)
# Probe 42 (1 0.8 0)
# Probe 43 (1 0.85 0)
# Probe 44 (1 0.9 0)
# Probe 45 (1 0.95 0)
# Probe 46 (0.95 1 0)
# Probe 47 (0.9 1 0)
# Probe 48 (0.85 1 0)
# Probe 49 (0.8 1 0)
# Probe 50 (0.75 1 0)
# Probe 51 (0.7 1 0)
# Probe 52 (0.65 1 0)
# Probe 53 (0.6 1 0)
# Probe 54 (0.55 1 0)
# Probe 55 (0.5 1 0)
# Probe 56 (0.45 1 0)
# Probe 57 (0.4 1 0)
# Probe 58 (0.35 1 0)
# Probe 59 (0.3 1 0)
# Probe 60 (0.25 1 0)
# Probe 61 (0.2 1 0)
# Probe 62 (0.15 1 0)
# Probe 63 (0.1 1 0)
# Probe 64 (0.05 1 0)
# Probe 65 (0 0.95 0)
# Probe 66 (0 0.9 0)
# Probe 67 (0 0.85 0)
# Probe 68 (0 0.8 0)
# Probe 69 (0 0.75 0)
# Probe 70 (0 0.7 0)
# Probe 71 (0 0.65 0)
# Probe 72 (0 0.6 0)
# Probe 73 (0 0.55 0)
# Probe 74 (0 0.5 0)
# Probe 75 (0 0.45 0)
# Probe 76 (0 0.4 0)
# Probe 77 (0 0.35 0)
# Probe 78 (0 0.3 0)
# Probe 79 (0 0.25 0)
# Probe 80 (0 0.2 0)
# Probe 81 (0 0.15 0)
# Probe 82 (0 0.1 0)
# Probe 83 (0 0.05 0)
# Probe 84 (0.83952 0.3202 0)
# Probe 85 (0.83808 0.31049 0)
# Probe 86 (0.83569 0.30097 0)
# Probe 87 (0.83239 0.29173 0)
# Probe 88 (0.82819 0.28286 0)
# Probe 89 (0.82315 0.27444 0)
# Probe 90 (0.8173 0.26656 0)
# Probe 91 (0.81071 0.25929 0)
# Probe 92 (0.80344 0.2527 0)
# Probe 93 (0.79556 0.24685 0)
# Probe 94 (0.78714 0.24181 0)
# Probe 95 (0.77827 0.23761 0)
# Probe 96 (0.76903 0.23431 0)
# Probe 97 (0.75951 0.23192 0)
# Probe 98 (0.7498 0.23048 0)
# Probe 99 (0.7302 0.23048 0)
# Probe 100 (0.72049 0.23192 0)
# Probe 101 (0.71097 0.23431 0)
# Probe 102 (0.70173 0.23761 0)
# Probe 103 (0.69286 0.24181 0)
# Probe 104 (0.68444 0.24685 0)
# Probe 105 (0.67656 0.2527 0)
# Probe 106 (0.66929 0.25929 0)
# Probe 107 (0.6627 0.26656 0)
# Probe 108 (0.65685 0.27444 0)
# Probe 109 (0.65181 0.28286 0)
# Probe 110 (0.64761 0.29173 0)
# Probe 111 (0.64431 0.30097 0)
# Probe 112 (0.64192 0.31049 0)
# Probe 113 (0.64048 0.3202 0)
# Probe 114 (0.64048 0.3398 0)
# Probe 115 (0.64192 0.34951 0)
# Probe 116 (0.64431 0.35903 0)
# Probe 117 (0.64761 0.36827 0)
# Probe 118 (0.65181 0.37714 0)
# Probe 119 (0.65685 0.38556 0)
# Probe 120 (0.6627 0.39344 0)
# Probe 121 (0.66929 0.40071 0)
# Probe 122 (0.67656 0.4073 0)
# Probe 123 (0.68444 0.41315 0)
# Probe 124 (0.69286 0.41819 0)
# Probe 125 (0.70173 0.42239 0)
# Probe 126 (0.71097 0.42569 0)
# Probe 127 (0.72049 0.42808 0)
# Probe 128 (0.7302 0.42952 0)
# Probe 129 (0.7498 0.42952 0)
# Probe 130 (0.75951 0.42808 0)
# Probe 131 (0.76903 0.42569 0)
# Probe 132 (0.77827 0.42239 0)
# Probe 133 (0.78714 0.41819 0)
# Probe 134 (0.79556 0.41315 0)
# Probe 135 (0.80344 0.4073 0)
# Probe 136 (0.81071 0.40071 0)
# Probe 137 (0.8173 0.39344 0)
# Probe 138 (0.82315 0.38556 0)
# Probe 139 (0.82819 0.37714 0)
# Probe 140 (0.83239 0.36827 0)
# Probe 141 (0.83569 0.35903 0)
# Probe 142 (0.83808 0.34951 0)
# Probe 143 (0.83952 0.3398 0)
# Probe 144 (0.04089 0.62222 0)
# Probe 145 (0.42951 0.9497 0)
# Probe 146 (0.04506 0.43014 0)
# Probe 147 (0.62435 0.95867 0)
# Probe 148 (0.37256 0.04562 0)
# Probe 149 (0.96333 0.67635 0)
# Probe 150 (0.79572 0.23704 0)
# Probe 151 (0.0433 0.275 0)
# Probe 152 (0.275 0.9567 0)
# Probe 153 (0.76628 0.22499 0)
# Probe 154 (0.72414 0.22248 0)
# Probe 155 (0.52476 0.03788 0)
# Probe 156 (0.82075 0.25823 0)
# Probe 157 (0.77145 0.95068 0)
# Probe 158 (0.82663 0.39413 0)
# Probe 159 (0.2263 0.0441 0)
# Probe 160 (0.04046 0.77807 0)
# Probe 161 (0.8395 0.28356 0)
# Probe 162 (0.84179 0.36645 0)
# Probe 163 (0.95251 0.52263 0)
# Probe 164 (0.63008 0.03794 0)
# Probe 165 (0.69326 0.23108 0)
# Probe 166 (0.74581 0.22049 0)
# Probe 167 (0.84915 0.32475 0)
# Probe 168 (0.81303 0.41045 0)
# Probe 169 (0.84771 0.34612 0)
# Probe 170 (0.84513 0.30367 0)
# Probe 171 (0.8224 0.04174 0)
# Probe 172 (0.95805 0.81773 0)
# Probe 173 (0.72337 0.04366 0)
# Probe 174 (0.95874 0.17821 0)
# Probe 175 (0.52751 0.96056 0)
# Probe 176 (0.04281 0.5188 0)
# Probe 177 (0.04164 0.17841 0)
# Probe 178 (0.17522 0.96219 0)
# Probe 179 (0.96329 0.4306 0)
# Probe 180 (0.96766 0.27833 0)
# Probe 181 (0.87113 0.9599 0)
# Probe 182 (0.12858 0.04299 0)
# Probe 183 (0.04008 0.86872 0)
# Probe 184 (0.92765 0.03898 0)
# Probe 185 (0.95751 0.92498 0)
# Probe 186 (0.04585 0.07666 0)
# Probe 187 (0.0756 0.96075 0)
# Probe 188 (0.95663 0.21678 0)
# Probe 189 (0.92295 0.19666 0)
# Probe 190 (0.92149 0.16116 0)
# Probe 191 (0.89271 0.18236 0)
# Probe 192 (0.89318 0.21223 0)
# Probe 193 (0.86687 0.19991 0)
# Probe 194 (0.86581 0.17093 0)
# Probe 195 (0.84334 0.18728 0)
# Probe 196 (0.84035 0.16074 0)
# Probe 197 (0.8181 0.17952 0)
# Probe 198 (0.81603 0.15066 0)
# Probe 199 (0.79642 0.16493 0)
# Probe 200 (0.79266 0.14021 0)
# Probe 201 (0.77205 0.15772 0)
# Probe 202 (0.86251 0.14214 0)
# Probe 203 (0.86493 0.22632 0)
# Probe 204 (0.76777 0.12758 0)
# Probe 205 (0.74713 0.14612 0)
# Probe 206 (0.74941 0.16991 0)
# Probe 207 (0.72698 0.1604 0)
# Probe 208 (0.7231 0.13638 0)
# Probe 209 (0.70397 0.15206 0)
# Probe 210 (0.69933 0.12646 0)
# Probe 211 (0.68032 0.14442 0)
# Probe 212 (0.68407 0.1677 0)
# Probe 213 (0.66165 0.16052 0)
# Probe 214 (0.66749 0.24996 0)
# Probe 215 (0.66611 0.18286 0)
# Probe 216 (0.64437 0.17603 0)
# Probe 217 (0.63893 0.15351 0)
# Probe 218 (0.62189 0.16981 0)
# Probe 219 (0.63019 0.19449 0)
# Probe 220 (0.60653 0.18678 0)
# Probe 221 (0.64694 0.27398 0)
# Probe 222 (0.61256 0.2078 0)
# Probe 223 (0.59179 0.20244 0)
# Probe 224 (0.59767 0.22245 0)
# Probe 225 (0.57734 0.21772 0)
# Probe 226 (0.58312 0.23745 0)
# Probe 227 (0.5624 0.23177 0)
# Probe 228 (0.56863 0.25207 0)
# Probe 229 (0.54758 0.24643 0)
# Probe 230 (0.5541 0.26713 0)
# Probe 231 (0.53367 0.26316 0)
# Probe 232 (0.53948 0.28329 0)
# Probe 233 (0.51862 0.27696 0)
# Probe 234 (0.52481 0.29843 0)
# Probe 235 (0.50344 0.29308 0)
# Probe 236 (0.50993 0.31509 0)
# Probe 237 (0.48802 0.31004 0)
# Probe 238 (0.49465 0.331 0)
# Probe 239 (0.46968 0.32681 0)
# Probe 240 (0.48262 0.35145 0)
# Probe 241 (0.45385 0.34519 0)
# Probe 242 (0.46223 0.37051 0)
# Probe 243 (0.4354 0.36379 0)
# Probe 244 (0.4433 0.38951 0)
# Probe 245 (0.46994 0.3962 0)
# Probe 246 (0.45144 0.41518 0)
# Probe 247 (0.47802 0.42141 0)
# Probe 248 (0.45967 0.44141 0)
# Probe 249 (0.48574 0.44816 0)
# Probe 250 (0.4676 0.468 0)
# Probe 251 (0.49401 0.47589 0)
# Probe 252 (0.47584 0.49499 0)
# Probe 253 (0.50337 0.50222 0)
# Probe 254 (0.48443 0.52205 0)
# Probe 255 (0.51242 0.52826 0)
# Probe 256 (0.45593 0.51587 0)
# Probe 257 (0.46485 0.54436 0)
# Probe 258 (0.65828 0.40335 0)
# Probe 259 (0.42439 0.41084 0)
# Probe 260 (0.43486 0.5378 0)
# Probe 261 (0.64203 0.37634 0)
# Probe 262 (0.44456 0.56788 0)
# Probe 263 (0.42751 0.33775 0)
# Probe 264 (0.41298 0.56118 0)
# Probe 265 (0.42307 0.59218 0)
# Probe 266 (0.45475 0.59926 0)
# Probe 267 (0.6326 0.3456 0)
# Probe 268 (0.38999 0.58549 0)
# Probe 269 (0.40131 0.61818 0)
# Probe 270 (0.47946 0.28551 0)
# Probe 271 (0.52861 0.24367 0)
# Probe 272 (0.36623 0.61085 0)
# Probe 273 (0.35574 0.57684 0)
# Probe 274 (0.37806 0.64551 0)
# Probe 275 (0.5317 0.50724 0)
# Probe 276 (0.54048 0.53366 0)
# Probe 277 (0.34101 0.63777 0)
# Probe 278 (0.55959 0.51437 0)
# Probe 279 (0.56662 0.54043 0)
# Probe 280 (0.68437 0.42278 0)
# Probe 281 (0.51623 0.33381 0)
# Probe 282 (0.63326 0.31319 0)
# Probe 283 (0.3524 0.67359 0)
# Probe 284 (0.39079 0.68116 0)
# Probe 285 (0.3148 0.66592 0)
# Probe 286 (0.58787 0.51958 0)
# Probe 287 (0.59509 0.54767 0)
# Probe 288 (0.61608 0.52581 0)
# Probe 289 (0.62754 0.55371 0)
# Probe 290 (0.75552 0.43727 0)
# Probe 291 (0.72353 0.43886 0)
# Probe 292 (0.60349 0.57739 0)
# Probe 293 (0.6384 0.5836 0)
# Probe 294 (0.6143 0.60857 0)
# Probe 295 (0.64809 0.61553 0)
# Probe 296 (0.67184 0.58985 0)
# Probe 297 (0.68144 0.62197 0)
# Probe 298 (0.70481 0.59634 0)
# Probe 299 (0.62506 0.6416 0)
# Probe 300 (0.71586 0.62995 0)
# Probe 301 (0.57811 0.49671 0)
# Probe 302 (0.70342 0.43173 0)
# Probe 303 (0.77578 0.43266 0)
# Probe 304 (0.3642 0.70997 0)
# Probe 305 (0.40317 0.71791 0)
# Probe 306 (0.7969 0.42365 0)
# Probe 307 (0.73981 0.60277 0)
# Probe 308 (0.57357 0.19962 0)
# Probe 309 (0.75151 0.63778 0)
# Probe 310 (0.72633 0.66576 0)
# Probe 311 (0.50522 0.42829 0)
# Probe 312 (0.76389 0.67421 0)
# Probe 313 (0.73697 0.70357 0)
# Probe 314 (0.37603 0.74788 0)
# Probe 315 (0.4158 0.75565 0)
# Probe 316 (0.69509 0.56537 0)
# Probe 317 (0.44222 0.7253 0)
# Probe 318 (0.45534 0.76318 0)
# Probe 319 (0.77554 0.60952 0)
# Probe 320 (0.76194 0.57155 0)
# Probe 321 (0.55899 0.28733 0)
# Probe 322 (0.77661 0.71215 0)
# Probe 323 (0.74918 0.74245 0)
# Probe 324 (0.70884 0.73333 0)
# Probe 325 (0.72109 0.77305 0)
# Probe 326 (0.6802 0.76364 0)
# Probe 327 (0.76134 0.78234 0)
# Probe 328 (0.48134 0.73278 0)
# Probe 329 (0.49518 0.77068 0)
# Probe 330 (0.5903 0.63392 0)
# Probe 331 (0.79706 0.58046 0)
# Probe 332 (0.78827 0.54828 0)
# Probe 333 (0.60026 0.66716 0)
# Probe 334 (0.30341 0.62841 0)
# Probe 335 (0.27626 0.65768 0)
# Probe 336 (0.26481 0.61759 0)
# Probe 337 (0.23666 0.64832 0)
# Probe 338 (0.24887 0.68818 0)
# Probe 339 (0.22502 0.60892 0)
# Probe 340 (0.25325 0.57766 0)
# Probe 341 (0.2134 0.56948 0)
# Probe 342 (0.24161 0.54019 0)
# Probe 343 (0.20196 0.53066 0)
# Probe 344 (0.23016 0.50182 0)
# Probe 345 (0.20789 0.6789 0)
# Probe 346 (0.21937 0.7186 0)
# Probe 347 (0.38911 0.78671 0)
# Probe 348 (0.61462 0.14584 0)
# Probe 349 (0.40445 0.53113 0)
# Probe 350 (0.40761 0.35746 0)
# Probe 351 (0.39991 0.32913 0)
# Probe 352 (0.37768 0.351 0)
# Probe 353 (0.36927 0.3201 0)
# Probe 354 (0.34568 0.34376 0)
# Probe 355 (0.33675 0.31073 0)
# Probe 356 (0.36118 0.28919 0)
# Probe 357 (0.31148 0.33595 0)
# Probe 358 (0.30295 0.30028 0)
# Probe 359 (0.27563 0.32726 0)
# Probe 360 (0.26635 0.28928 0)
# Probe 361 (0.23771 0.31796 0)
# Probe 362 (0.22683 0.2793 0)
# Probe 363 (0.25675 0.24991 0)
# Probe 364 (0.32231 0.3684 0)
# Probe 365 (0.21575 0.23913 0)
# Probe 366 (0.58768 0.25618 0)
# Probe 367 (0.63853 0.29259 0)
# Probe 368 (0.34797 0.77836 0)
# Probe 369 (0.81572 0.61527 0)
# Probe 370 (0.24572 0.20978 0)
# Probe 371 (0.20422 0.19774 0)
# Probe 372 (0.19102 0.49211 0)
# Probe 373 (0.19957 0.31001 0)
# Probe 374 (0.69252 0.80409 0)
# Probe 375 (0.65184 0.79427 0)
# Probe 376 (0.81699 0.55338 0)
# Probe 377 (0.80686 0.52464 0)
# Probe 378 (0.77993 0.51921 0)
# Probe 379 (0.36155 0.81863 0)
# Probe 380 (0.31899 0.80978 0)
# Probe 381 (0.46886 0.80165 0)
# Probe 382 (0.50924 0.80927 0)
# Probe 383 (0.2489 0.35498 0)
# Probe 384 (0.26854 0.51065 0)
# Probe 385 (0.79535 0.49665 0)
# Probe 386 (0.82347 0.50248 0)
# Probe 387 (0.61702 0.22848 0)
# Probe 388 (0.77096 0.49541 0)
# Probe 389 (0.75665 0.51252 0)
# Probe 390 (0.75089 0.49044 0)
# Probe 391 (0.73575 0.50534 0)
# Probe 392 (0.17345 0.55963 0)
# Probe 393 (0.17844 0.70835 0)
# Probe 394 (0.18338 0.74446 0)
# Probe 395 (0.73021 0.48467 0)
# Probe 396 (0.71602 0.49929 0)
# Probe 397 (0.71112 0.47961 0)
# Probe 398 (0.69705 0.49392 0)
# Probe 399 (0.69236 0.47539 0)
# Probe 400 (0.81262 0.4804 0)
# Probe 401 (0.83833 0.47946 0)
# Probe 402 (0.8508 0.50623 0)
# Probe 403 (0.86669 0.48312 0)
# Probe 404 (0.85408 0.45802 0)
# Probe 405 (0.28705 0.22056 0)
# Probe 406 (0.27628 0.18031 0)
# Probe 407 (0.31685 0.19157 0)
# Probe 408 (0.67835 0.48891 0)
# Probe 409 (0.67427 0.47048 0)
# Probe 410 (0.56606 0.65992 0)
# Probe 411 (0.57297 0.692 0)
# Probe 412 (0.55559 0.62587 0)
# Probe 413 (0.16561 0.66825 0)
# Probe 414 (0.25762 0.47347 0)
# Probe 415 (0.29481 0.48235 0)
# Probe 416 (0.30657 0.15113 0)
# Probe 417 (0.34631 0.16381 0)
# Probe 418 (0.17343 0.22867 0)
# Probe 419 (0.43991 0.46054 0)
# Probe 420 (0.48235 0.84145 0)
# Probe 421 (0.53329 0.65116 0)
# Probe 422 (0.52414 0.8493 0)
# Probe 423 (0.16141 0.18592 0)
# Probe 424 (0.66344 0.83566 0)
# Probe 425 (0.70586 0.84544 0)
# Probe 426 (0.41962 0.31003 0)
# Probe 427 (0.65985 0.4833 0)
# Probe 428 (0.65621 0.46226 0)
# Probe 429 (0.64097 0.47803 0)
# Probe 430 (0.63682 0.45935 0)
# Probe 431 (0.64712 0.44617 0)
# Probe 432 (0.63151 0.44227 0)
# Probe 433 (0.61893 0.45436 0)
# Probe 434 (0.61495 0.43596 0)
# Probe 435 (0.60162 0.44834 0)
# Probe 436 (0.59753 0.42954 0)
# Probe 437 (0.58332 0.4426 0)
# Probe 438 (0.57967 0.42361 0)
# Probe 439 (0.59385 0.41096 0)
# Probe 440 (0.57669 0.40487 0)
# Probe 441 (0.59302 0.3922 0)
# Probe 442 (0.57405 0.3868 0)
# Probe 443 (0.58748 0.37529 0)
# Probe 444 (0.57076 0.36935 0)
# Probe 445 (0.58418 0.35809 0)
# Probe 446 (0.55652 0.3807 0)
# Probe 447 (0.56775 0.35223 0)
# Probe 448 (0.58091 0.34097 0)
# Probe 449 (0.60818 0.40028 0)
# Probe 450 (0.56501 0.3355 0)
# Probe 451 (0.62773 0.42682 0)
# Probe 452 (0.56408 0.43655 0)
# Probe 453 (0.5995 0.36402 0)
# Probe 454 (0.79677 0.18702 0)
# Probe 455 (0.68634 0.18926 0)
# Probe 456 (0.67086 0.20178 0)
# Probe 457 (0.52109 0.55633 0)
# Probe 458 (0.66457 0.50178 0)
# Probe 459 (0.89086 0.2392 0)
# Probe 460 (0.33275 0.85151 0)
# Probe 461 (0.28921 0.84243 0)
# Probe 462 (0.6342 0.12732 0)
# Probe 463 (0.6073 0.11898 0)
# Probe 464 (0.5868 0.13943 0)
# Probe 465 (0.57904 0.32499 0)
# Probe 466 (0.59363 0.33007 0)
# Probe 467 (0.59158 0.31441 0)
# Probe 468 (0.53547 0.77751 0)
# Probe 469 (0.13536 0.69855 0)
# Probe 470 (0.76348 0.47608 0)
# Probe 471 (0.37523 0.85959 0)
# Probe 472 (0.19342 0.15417 0)
# Probe 473 (0.88221 0.45993 0)
# Probe 474 (0.86879 0.43653 0)
# Probe 475 (0.3561 0.20226 0)
# Probe 476 (0.38416 0.17618 0)
# Probe 477 (0.39375 0.2129 0)
# Probe 478 (0.42007 0.18639 0)
# Probe 479 (0.41174 0.15133 0)
# Probe 480 (0.44683 0.16233 0)
# Probe 481 (0.44062 0.12449 0)
# Probe 482 (0.47449 0.13772 0)
# Probe 483 (0.4541 0.19609 0)
# Probe 484 (0.86729 0.25333 0)
# Probe 485 (0.88902 0.2643 0)
# Probe 486 (0.63147 0.67459 0)
# Probe 487 (0.73081 0.18328 0)
# Probe 488 (0.81235 0.127 0)
# Probe 489 (0.57813 0.11045 0)
# Probe 490 (0.55729 0.13533 0)
# Probe 491 (0.25724 0.72592 0)
# Probe 492 (0.28442 0.4461 0)
# Probe 493 (0.32073 0.45556 0)
# Probe 494 (0.33095 0.49064 0)
# Probe 495 (0.35526 0.46388 0)
# Probe 496 (0.24684 0.43645 0)
# Probe 497 (0.62329 0.82562 0)
# Probe 498 (0.46783 0.69702 0)
# Probe 499 (0.87922 0.51093 0)
# Probe 500 (0.14925 0.14161 0)
# Probe 501 (0.12963 0.21811 0)
# Probe 502 (0.34694 0.89379 0)
# Probe 503 (0.73864 0.52799 0)
# Probe 504 (0.84814 0.24228 0)
# Probe 505 (0.47139 0.10073 0)
# Probe 506 (0.84544 0.4336 0)
# Probe 507 (0.85769 0.41543 0)
# Probe 508 (0.88054 0.41467 0)
# Probe 509 (0.86812 0.39335 0)
# Probe 510 (0.89134 0.39428 0)
# Probe 511 (0.87929 0.37462 0)
# Probe 512 (0.90361 0.37385 0)
# Probe 513 (0.89192 0.35166 0)
# Probe 514 (0.91741 0.35171 0)
# Probe 515 (0.90321 0.32912 0)
# Probe 516 (0.64088 0.75366 0)
# Probe 517 (0.70404 0.46197 0)
# Probe 518 (0.67582 0.87813 0)
# Probe 519 (0.75059 0.19051 0)
# Probe 520 (0.6054 0.32013 0)
# Probe 521 (0.6032 0.30504 0)
# Probe 522 (0.60803 0.3341 0)
# Probe 523 (0.70183 0.51443 0)
# Probe 524 (0.52165 0.61827 0)
# Probe 525 (0.80253 0.68207 0)
# Probe 526 (0.81685 0.72064 0)
# Probe 527 (0.84345 0.6917 0)
# Probe 528 (0.85855 0.7299 0)
# Probe 529 (0.33666 0.12277 0)
# Probe 530 (0.29664 0.1093 0)
# Probe 531 (0.14295 0.25999 0)
# Probe 532 (0.87092 0.276 0)
# Probe 533 (0.34593 0.43006 0)
# Probe 534 (0.8296 0.76207 0)
# Probe 535 (0.8727 0.77147 0)
# Probe 536 (0.84333 0.80508 0)
# Probe 537 (0.91049 0.73931 0)
# Probe 538 (0.58935 0.29888 0)
# Probe 539 (0.60123 0.28952 0)
# Probe 540 (0.40677 0.10996 0)
# Probe 541 (0.12255 0.65715 0)
# Probe 542 (0.09073 0.68987 0)
# Probe 543 (0.72008 0.88648 0)
# Probe 544 (0.7486 0.8548 0)
# Probe 545 (0.4962 0.88176 0)
# Probe 546 (0.72037 0.1113 0)
# Probe 547 (0.68771 0.09825 0)
# Probe 548 (0.93249 0.32145 0)
# Probe 549 (0.38717 0.38168 0)
# Probe 550 (0.8883 0.28688 0)
# Probe 551 (0.45363 0.87392 0)
# Probe 552 (0.55164 0.34611 0)
# Probe 553 (0.54775 0.32822 0)
# Probe 554 (0.61655 0.29587 0)
# Probe 555 (0.61328 0.28152 0)
# Probe 556 (0.84617 0.25872 0)
# Probe 557 (0.49714 0.64318 0)
# Probe 558 (0.27533 0.80143 0)
# Probe 559 (0.24479 0.83305 0)
# Probe 560 (0.2589 0.87549 0)
# Probe 561 (0.21357 0.86654 0)
# Probe 562 (0.53868 0.88871 0)
# Probe 563 (0.6889 0.20931 0)
# Probe 564 (0.67618 0.21996 0)
# Probe 565 (0.6596 0.21443 0)
# Probe 566 (0.70198 0.19819 0)
# Probe 567 (0.60537 0.46623 0)
# Probe 568 (0.69489 0.919 0)
# Probe 569 (0.50052 0.11399 0)
# Probe 570 (0.50608 0.15057 0)
# Probe 571 (0.56807 0.45638 0)
# Probe 572 (0.54747 0.45061 0)
# Probe 573 (0.54466 0.43024 0)
# Probe 574 (0.70558 0.21434 0)
# Probe 575 (0.71581 0.20466 0)
# Probe 576 (0.3778 0.43922 0)
# Probe 577 (0.38735 0.47141 0)
# Probe 578 (0.93227 0.37874 0)
# Probe 579 (0.1822 0.10996 0)
# Probe 580 (0.5872 0.2831 0)
# Probe 581 (0.10984 0.72979 0)
# Probe 582 (0.50947 0.70328 0)
# Probe 583 (0.87553 0.33037 0)
# Probe 584 (0.19936 0.82413 0)
# Probe 585 (0.16766 0.8566 0)
# Probe 586 (0.15353 0.8133 0)
# Probe 587 (0.12155 0.84596 0)
# Probe 588 (0.13551 0.88856 0)
# Probe 589 (0.90501 0.41474 0)
# Probe 590 (0.66338 0.22884 0)
# Probe 591 (0.64565 0.2243 0)
# Probe 592 (0.27388 0.4107 0)
# Probe 593 (0.86214 0.5353 0)
# Probe 594 (0.89343 0.54166 0)
# Probe 595 (0.87459 0.56913 0)
# Probe 596 (0.91037 0.57511 0)
# Probe 597 (0.88662 0.60572 0)
# Probe 598 (0.92441 0.61475 0)
# Probe 599 (0.8985 0.65382 0)
# Probe 600 (0.15415 0.62755 0)
# Probe 601 (0.1156 0.61417 0)
# Probe 602 (0.55019 0.47217 0)
# Probe 603 (0.6517 0.24037 0)
# Probe 604 (0.61743 0.32532 0)
# Probe 605 (0.86861 0.29608 0)
# Probe 606 (0.91186 0.25359 0)
# Probe 607 (0.88506 0.81573 0)
# Probe 608 (0.85638 0.84945 0)
# Probe 609 (0.90102 0.8609 0)
# Probe 610 (0.22632 0.12373 0)
# Probe 611 (0.62919 0.09887 0)
# Probe 612 (0.83834 0.41602 0)
# Probe 613 (0.82539 0.42937 0)
# Probe 614 (0.84669 0.39844 0)
# Probe 615 (0.23114 0.91401 0)
# Probe 616 (0.54911 0.10267 0)
# Probe 617 (0.57077 0.07899 0)
# Probe 618 (0.10685 0.8047 0)
# Probe 619 (0.56406 0.85398 0)
# Probe 620 (0.58295 0.8982 0)
# Probe 621 (0.7672 0.18035 0)
# Probe 622 (0.76529 0.19874 0)
# Probe 623 (0.85492 0.38107 0)
# Probe 624 (0.86474 0.3628 0)
# Probe 625 (0.95652 0.13473 0)
# Probe 626 (0.91357 0.11875 0)
# Probe 627 (0.83305 0.44838 0)
# Probe 628 (0.81288 0.44436 0)
# Probe 629 (0.54314 0.5881 0)
# Probe 630 (0.39231 0.91059 0)
# Probe 631 (0.85876 0.6353 0)
# Probe 632 (0.8143 0.8367 0)
# Probe 633 (0.82807 0.88154 0)
# Probe 634 (0.63922 0.23744 0)
# Probe 635 (0.64019 0.25084 0)
# Probe 636 (0.62705 0.24344 0)
# Probe 637 (0.63099 0.26049 0)
# Probe 638 (0.61817 0.25767 0)
# Probe 639 (0.32752 0.07946 0)
# Probe 640 (0.53094 0.46206 0)
# Probe 641 (0.28462 0.06618 0)
# Probe 642 (0.8444 0.21118 0)
# Probe 643 (0.82506 0.20283 0)
# Probe 644 (0.82679 0.22082 0)
# Probe 645 (0.81003 0.21552 0)
# Probe 646 (0.36961 0.23796 0)
# Probe 647 (0.40504 0.24542 0)
# Probe 648 (0.79137 0.47538 0)
# Probe 649 (0.6438 0.5297 0)
# Probe 650 (0.74644 0.47151 0)
# Probe 651 (0.75886 0.45768 0)
# Probe 652 (0.74299 0.45648 0)
# Probe 653 (0.77651 0.46397 0)
# Probe 654 (0.94666 0.09757 0)
# Probe 655 (0.67525 0.23322 0)
# Probe 656 (0.35354 0.93296 0)
# Probe 657 (0.46721 0.91619 0)
# Probe 658 (0.6132 0.41751 0)
# Probe 659 (0.62296 0.4041 0)
# Probe 660 (0.62073 0.39164 0)
# Probe 661 (0.63408 0.39525 0)
# Probe 662 (0.63643 0.40731 0)
# Probe 663 (0.60362 0.37812 0)
# Probe 664 (0.61409 0.36828 0)
# Probe 665 (0.61159 0.35545 0)
# Probe 666 (0.62461 0.36147 0)
# Probe 667 (0.62828 0.37247 0)
# Probe 668 (0.73181 0.46536 0)
# Probe 669 (0.56816 0.16258 0)
# Probe 670 (0.96027 0.47462 0)
# Probe 671 (0.91924 0.45105 0)
# Probe 672 (0.9268 0.48976 0)
# Probe 673 (0.76432 0.89807 0)
# Probe 674 (0.64579 0.39895 0)
# Probe 675 (0.64864 0.41131 0)
# Probe 676 (0.65946 0.41585 0)
# Probe 677 (0.65121 0.42377 0)
# Probe 678 (0.66324 0.42793 0)
# Probe 679 (0.63109 0.21368 0)
# Probe 680 (0.61553 0.31115 0)
# Probe 681 (0.83646 0.24909 0)
# Probe 682 (0.83677 0.26611 0)
# Probe 683 (0.62101 0.33826 0)
# Probe 684 (0.68802 0.45814 0)
# Probe 685 (0.67266 0.45274 0)
# Probe 686 (0.68531 0.44444 0)
# Probe 687 (0.69874 0.44879 0)
# Probe 688 (0.71327 0.44849 0)
# Probe 689 (0.60781 0.49859 0)
# Probe 690 (0.77583 0.04051 0)
# Probe 691 (0.79864 0.07972 0)
# Probe 692 (0.84111 0.07722 0)
# Probe 693 (0.75778 0.07562 0)
# Probe 694 (0.87702 0.04588 0)
# Probe 695 (0.67407 0.03758 0)
# Probe 696 (0.81152 0.23155 0)
# Probe 697 (0.08915 0.25473 0)
# Probe 698 (0.11366 0.29601 0)
# Probe 699 (0.60059 0.2412 0)
# Probe 700 (0.77254 0.44602 0)
# Probe 701 (0.78457 0.45103 0)
# Probe 702 (0.63194 0.50842 0)
# Probe 703 (0.70664 0.17528 0)
# Probe 704 (0.73794 0.20018 0)
# Probe 705 (0.59866 0.34678 0)
# Probe 706 (0.90892 0.30141 0)
# Probe 707 (0.88171 0.08925 0)
# Probe 708 (0.23578 0.40176 0)
# Probe 709 (0.20822 0.42721 0)
# Probe 710 (0.19703 0.38584 0)
# Probe 711 (0.16803 0.41721 0)
# Probe 712 (0.15655 0.37762 0)
# Probe 713 (0.12651 0.40826 0)
# Probe 714 (0.139 0.44779 0)
# Probe 715 (0.1154 0.36658 0)
# Probe 716 (0.14296 0.33533 0)
# Probe 717 (0.0947 0.43979 0)
# Probe 718 (0.10991 0.47814 0)
# Probe 719 (0.06675 0.47537 0)
# Probe 720 (0.48118 0.17256 0)
# Probe 721 (0.51095 0.18458 0)
# Probe 722 (0.48604 0.20476 0)
# Probe 723 (0.46229 0.22581 0)
# Probe 724 (0.49136 0.235 0)
# Probe 725 (0.47019 0.25543 0)
# Probe 726 (0.51286 0.21239 0)
# Probe 727 (0.43858 0.24956 0)
# Probe 728 (0.44995 0.27488 0)
# Probe 729 (0.53723 0.19676 0)
# Probe 730 (0.49551 0.26449 0)
# Probe 731 (0.45883 0.30226 0)
# Probe 732 (0.72626 0.57145 0)
# Probe 733 (0.95396 0.57735 0)
# Probe 734 (0.71579 0.54075 0)
# Probe 735 (0.68866 0.53476 0)
# Probe 736 (0.66218 0.55437 0)
# Probe 737 (0.75137 0.20825 0)
# Probe 738 (0.88569 0.30908 0)
# Probe 739 (0.62395 0.28583 0)
# Probe 740 (0.72929 0.4509 0)
# Probe 741 (0.63796 0.36651 0)
# Probe 742 (0.64525 0.3872 0)
# Probe 743 (0.63256 0.32444 0)
# Probe 744 (0.67585 0.41677 0)
# Probe 745 (0.62588 0.3051 0)
# Probe 746 (0.84193 0.38493 0)
# Probe 747 (0.13752 0.09482 0)
# Probe 748 (0.10857 0.1268 0)
# Probe 749 (0.64234 0.2827 0)
# Probe 750 (0.65304 0.26547 0)
# Probe 751 (0.05533 0.72591 0)
# Probe 752 (0.64965 0.19624 0)
# Probe 753 (0.66002 0.25751 0)
# Probe 754 (0.54743 0.30615 0)
# Probe 755 (0.56484 0.30315 0)
# Probe 756 (0.49617 0.40236 0)
# Probe 757 (0.51986 0.40662 0)
# Probe 758 (0.51277 0.38496 0)
# Probe 759 (0.70371 0.22708 0)
# Probe 760 (0.63655 0.27294 0)
# Probe 761 (0.73427 0.43902 0)
# Probe 762 (0.47323 0.04403 0)
# Probe 763 (0.42339 0.0402 0)
# Probe 764 (0.78667 0.23167 0)
# Probe 765 (0.806 0.24359 0)
# Probe 766 (0.81757 0.24307 0)
# Probe 767 (0.77651 0.22796 0)
# Probe 768 (0.78527 0.21954 0)
# Probe 769 (0.3298 0.2359 0)
# Probe 770 (0.71381 0.22416 0)
# Probe 771 (0.69383 0.42756 0)
# Probe 772 (0.71315 0.43584 0)
# Probe 773 (0.57774 0.9526 0)
# Probe 774 (0.74532 0.43825 0)
# Probe 775 (0.53779 0.38877 0)
# Probe 776 (0.52753 0.37006 0)
# Probe 777 (0.50633 0.36411 0)
# Probe 778 (0.79711 0.22558 0)
# Probe 779 (0.04461 0.67235 0)
# Probe 780 (0.85397 0.28387 0)
# Probe 781 (0.65103 0.91798 0)
# Probe 782 (0.04115 0.5717 0)
# Probe 783 (0.08778 0.5475 0)
# Probe 784 (0.95942 0.72291 0)
# Probe 785 (0.95707 0.76855 0)
# Probe 786 (0.31019 0.42241 0)
# Probe 787 (0.30601 0.51825 0)
# Probe 788 (0.34183 0.52251 0)
# Probe 789 (0.32342 0.55713 0)
# Probe 790 (0.28117 0.54774 0)
# Probe 791 (0.29287 0.5886 0)
# Probe 792 (0.42949 0.68876 0)
# Probe 793 (0.4567 0.65837 0)
# Probe 794 (0.36447 0.49569 0)
# Probe 795 (0.41111 0.44476 0)
# Probe 796 (0.73482 0.22105 0)
# Probe 797 (0.75598 0.22165 0)
# Probe 798 (0.57888 0.60002 0)
# Probe 799 (0.29528 0.26225 0)
# Probe 800 (0.415 0.65255 0)
# Probe 801 (0.8203 0.40278 0)
# Probe 802 (0.84284 0.29335 0)
# Probe 803 (0.80591 0.41752 0)
# Probe 804 (0.78648 0.42831 0)
# Probe 805 (0.79784 0.43527 0)
# Probe 806 (0.17735 0.0669 0)
# Probe 807 (0.659 0.10868 0)
# Probe 808 (0.08367 0.20349 0)
# Probe 809 (0.04177 0.37608 0)
# Probe 810 (0.04013 0.32595 0)
# Probe 811 (0.07666 0.83745 0)
# Probe 812 (0.67083 0.7231 0)
# Probe 813 (0.70073 0.69337 0)
# Probe 814 (0.53767 0.16558 0)
# Probe 815 (0.52115 0.74137 0)
# Probe 816 (0.56098 0.74572 0)
# Probe 817 (0.57509 0.78131 0)
# Probe 818 (0.63649 0.71159 0)
# Probe 819 (0.59787 0.16362 0)
# Probe 820 (0.84773 0.31406 0)
# Probe 821 (0.85817 0.31836 0)
# Probe 822 (0.84513 0.35633 0)
# Probe 823 (0.84932 0.33565 0)
# Probe 824 (0.85928 0.34226 0)
# Probe 825 (0.82225 0.95877 0)
# Probe 826 (0.72008 0.95856 0)
# Probe 827 (0.31379 0.92606 0)
# Probe 828 (0.9505 0.86927 0)
# Probe 829 (0.04044 0.1294 0)
# Probe 830 (0.12552 0.96176 0)
# Probe 831 (0.14075 0.76536 0)
# Probe 832 (0.3062 0.77109 0)
# Probe 833 (0.42917 0.21859 0)
# Probe 834 (0.48836 0.37878 0)
# Probe 835 (0.54138 0.68633 0)
# Probe 836 (0.36978 0.09472 0)
# Probe 837 (0.60192 0.74224 0)
# Probe 838 (0.54906 0.81487 0)
# Probe 839 (0.84918 0.59724 0)
# Probe 840 (0.60079 0.27526 0)
# Probe 841 (0.80459 0.46231 0)
# Probe 842 (0.23176 0.79447 0)
# Probe 843 (0.56131 0.41707 0)
# Probe 844 (0.40261 0.8261 0)
# Probe 845 (0.48789 0.61019 0)
# Probe 846 (0.63175 0.33532 0)
# Probe 847 (0.84508 0.27273 0)
# Probe 848 (0.87156 0.89111 0)
# Probe 849 (0.36635 0.40705 0)
# Probe 850 (0.65557 0.07434 0)
# Probe 851 (0.23517 0.16819 0)
# Probe 852 (0.42642 0.50897 0)
# Probe 853 (0.63463 0.35605 0)
# Probe 854 (0.47596 0.57626 0)
# Probe 855 (0.09342 0.08003 0)
# Probe 856 (0.18319 0.89715 0)
# Probe 857 (0.62969 0.87613 0)
# Probe 858 (0.28719 0.69529 0)
# Probe 859 (0.33673 0.74022 0)
# Probe 860 (0.88729 0.69749 0)
# Probe 861 (0.28653 0.361 0)
# Probe 862 (0.20978 0.34673 0)
# Probe 863 (0.42914 0.79426 0)
# Probe 864 (0.18467 0.59863 0)
# Probe 865 (0.63203 0.38338 0)
# Probe 866 (0.30272 0.88403 0)
# Probe 867 (0.0836 0.39662 0)
# Probe 868 (0.57499 0.27041 0)
# Probe 869 (0.11883 0.17298 0)
# Probe 870 (0.196 0.63866 0)
# Probe 871 (0.50811 0.58414 0)
# Probe 872 (0.73344 0.81277 0)
# Probe 873 (0.1627 0.52105 0)
# Probe 874 (0.13462 0.55123 0)
# Probe 875 (0.32575 0.70286 0)
# Probe 876 (0.33045 0.59993 0)
# Probe 877 (0.38134 0.55387 0)
# Probe 878 (0.78917 0.7507 0)
# Probe 879 (0.22173 0.96071 0)
# Probe 880 (0.39197 0.29975 0)
# Probe 881 (0.41853 0.27779 0)
# Probe 882 (0.7655 0.43582 0)
# Probe 883 (0.78875 0.64501 0)
# Probe 884 (0.65791 0.64803 0)
# Probe 885 (0.53052 0.31945 0)
# Probe 886 (0.18724 0.26885 0)
# Probe 887 (0.04188 0.22747 0)
# Probe 888 (0.67261 0.43848 0)
# Probe 889 (0.21915 0.46425 0)
# Probe 890 (0.35583 0.37535 0)
# Probe 891 (0.26654 0.13817 0)
# Probe 892 (0.53673 0.22529 0)
# Probe 893 (0.52618 0.44334 0)
# Probe 894 (0.08596 0.88084 0)
# Probe 895 (0.62255 0.34978 0)
# Probe 896 (0.76281 0.53904 0)
# Probe 897 (0.92093 0.95369 0)
# Probe 898 (0.04517 0.92165 0)
# Probe 899 (0.44723 0.48813 0)
# Probe 900 (0.50011 0.07695 0)
# Probe 901 (0.47992 0.95954 0)
# Probe 902 (0.49448 0.5519 0)
# Probe 903 (0.57225 0.56864 0)
# Probe 904 (0.3759 0.13646 0)
# Probe 905 (0.5796 0.04853 0)
# Probe 906 (0.62383 0.27383 0)
# Probe 907 (0.39587 0.50217 0)
# Probe 908 (0.55821 0.39783 0)
# Probe 909 (0.80239 0.79395 0)
# Probe 910 (0.91612 0.90317 0)
# Probe 911 (0.41647 0.38421 0)
# Probe 912 (0.62317 0.47197 0)
# Probe 913 (0.43366 0.62329 0)
# Probe 914 (0.40263 0.07337 0)
# Probe 915 (0.55462 0.36324 0)
# Probe 916 (0.08226 0.64083 0)
# Probe 917 (0.82751 0.65372 0)
# Probe 918 (0.76429 0.21382 0)
# Probe 919 (0.44195 0.83359 0)
# Probe 920 (0.89161 0.1511 0)
# Probe 921 (0.32878 0.27759 0)
# Probe 922 (0.65862 0.13593 0)
# Probe 923 (0.64273 0.26369 0)
# Probe 924 (0.7279 0.21067 0)
# Probe 925 (0.17986 0.45551 0)
# Probe 926 (0.54128 0.41097 0)
# Probe 927 (0.41768 0.48042 0)
# Probe 928 (0.58579 0.18232 0)
# Probe 929 (0.67478 0.42639 0)
# Probe 930 (0.7766 0.20805 0)
# Probe 931 (0.79118 0.20324 0)
# Probe 932 (0.61408 0.78379 0)
# Probe 933 (0.82387 0.41396 0)
# Probe 934 (0.9658 0.31396 0)
# Probe 935 (0.95487 0.3506 0)
# Probe 936 (0.71985 0.08165 0)
# Probe 937 (0.6928 0.65557 0)
# Probe 938 (0.63889 0.41941 0)
# Probe 939 (0.77387 0.8236 0)
# Probe 940 (0.67339 0.95904 0)
# Probe 941 (0.71525 0.18972 0)
# Probe 942 (0.58708 0.4612 0)
# Probe 943 (0.68744 0.22119 0)
# Probe 944 (0.91736 0.79015 0)
# Probe 945 (0.72161 0.51756 0)
# Probe 946 (0.85611 0.11053 0)
# Probe 947 (0.67579 0.24343 0)
# Probe 948 (0.5977 0.08788 0)
# Probe 949 (0.74767 0.10368 0)
# Probe 950 (0.77294 0.10097 0)
# Probe 951 (0.82959 0.23753 0)
# Probe 952 (0.68339 0.50957 0)
# Probe 953 (0.7506 0.4468 0)
# Probe 954 (0.33416 0.39948 0)
# Probe 955 (0.32157 0.03629 0)
# Probe 956 (0.16025 0.30166 0)
# Probe 957 (0.96261 0.62829 0)
# Probe 958 (0.57516 0.2924 0)
# Probe 959 (0.07549 0.0387 0)
# Probe 960 (0.91892 0.22722 0)
# Probe 961 (0.77982 0.19192 0)
# Probe 962 (0.81082 0.4297 0)
# Probe 963 (0.79788 0.44866 0)
# Probe 964 (0.83459 0.53018 0)
# Probe 965 (0.4373 0.43455 0)
# Probe 966 (0.39644 0.41597 0)
# Probe 967 (0.14572 0.58821 0)
# Probe 968 (0.71883 0.4622 0)
# Probe 969 (0.83663 0.13559 0)
# Probe 970 (0.64181 0.43248 0)
# Probe 971 (0.89494 0.438 0)