# Probe 0 (0 0 0)
# Probe 1 (1 0 0)
# Probe 2 (1 1 0)
# Probe 3 (0 1 0)
# Probe 4 (0.64 0.59 0)
# Probe 5 (0.54 0.49 0)
# Probe 6 (0.44 0.59 0)
# Probe 7 (0.54 0.69 0)
# Probe 8 (0.05 0 0)
# Probe 9 (0.1 0 0)
# Probe 10 (0.15 0 0)
# Probe 11 (0.2 0 0)
# Probe 12 (0.25 0 0)
# Probe 13 (0.3 0 0)
# Probe 14 (0.35 0 0)
# Probe 15 (0.4 0 0)
# Probe 16 (0.45 0 0)
# Probe 17 (0.5 0 0)
# Probe 18 (0.55 0 0)
# Probe 19 (0.6 0 0)
# Probe 20 (0.65 0 0)
# Probe 21 (0.7 0 0)
# Probe 22 (0.75 0 0)
# Probe 23 (0.8 0 0)
# Probe 24 (0.85 0 0)
# Probe 25 (0.9 0 0)
# Probe 26 (0.95 0 0)
# Probe 27 (1 0.05 0)
# Probe 28 (1 0.1 0)
# Probe 29 (1 0.15 0)
# Probe 30 (1 0.2 0)
# Probe 31 (1 0.25 0)
# Probe 32 (1 0.3 0)
# Probe 33 (1 0.35 0)
# Probe 34 (1 0.4 0)
# Probe 35 (1 0.45 0)
# Probe 36 (1 0.5 0)
# Probe 37 (1 0.55 0)
# Probe 38 (1 0.6 0)
# Probe 39 (1 0.65 0)
# Probe 40 (1 0.7 0)
# Probe 41 (1 0.75 0)
# Probe 42 (1 0.8 0)
# Probe 43 (1 0.85 0)
# Probe 44 (1 0.9 0)
# Probe 45 (1 0.95 0)
# Probe 46 (0.95 1 0)
# Probe 47 (0.9 1 0)
# Probe 48 (0.85 1 0)
# Probe 49 (0.8 1 0)
# Probe 50 (0.75 1 0)
# Probe 51 (0.7 1 0)
# Probe 52 (0.65 1 0)
# Probe 53 (0.6 1 0)
# Probe 54 (0.55 1 0)
# Probe 55 (0.5 1 0)
# Probe 56 (0.45 1 0)
# Probe 57 (0.4 1 0)
# Probe 58 (0.35 1 0)
# Probe 59 (0.3 1 0)
# Probe 60 (0.25 1 0)
# Probe 61 (0.2 1 0)
# Probe 62 (0.15 1 0)
# Probe 63 (0.1 1 0)
# Probe 64 (0.05 1 0)
# Probe 65 (0 0.95 0)
# Probe 66 (0 0.9 0)
# Probe 67 (0 0.85 0)
# Probe 68 (0 0.8 0)
# Probe 69 (0 0.75 0)
# Probe 70 (0 0.7 0)
# Probe 71 (0 0.65 0)
# Probe 72 (0 0.6 0)
# Probe 73 (0 0.55 0)
# Probe 74 (0 0.5 0)
# Probe 75 (0 0.45 0)
# Probe 76 (0 0.4 0)
# Probe 77 (0 0.35 0)
# Probe 78 (0 0.3 0)
# Probe 79 (0 0.25 0)
# Probe 80 (0 0.2 0)
# Probe 81 (0 0.15 0)
# Probe 82 (0 0.1 0)
# Probe 83 (0 0.05 0)
# Probe 84 (0.63952 0.5802 0)
# Probe 85 (0.63808 0.57049 0)
# Probe 86 (0.63569 0.56097 0)
# Probe 87 (0.63239 0.55173 0)
# Probe 88 (0.62819 0.54286 0)
# Probe 89 (0.62315 0.53444 0)
# Probe 90 (0.6173 0.52656 0)
# Probe 91 (0.61071 0.51929 0)
# Probe 92 (0.60344 0.5127 0)
# Probe 93 (0.59556 0.50685 0)
# Probe 94 (0.58714 0.50181 0)
# Probe 95 (0.57827 0.49761 0)
# Probe 96 (0.56903 0.49431 0)
# Probe 97 (0.55951 0.49192 0)
# Probe 98 (0.5498 0.49048 0)
# Probe 99 (0.5302 0.49048 0)
# Probe 100 (0.52049 0.49192 0)
# Probe 101 (0.51097 0.49431 0)
# Probe 102 (0.50173 0.49761 0)
# Probe 103 (0.49286 0.50181 0)
# Probe 104 (0.48444 0.50685 0)
# Probe 105 (0.47656 0.5127 0)
# Probe 106 (0.46929 0.51929 0)
# Probe 107 (0.4627 0.52656 0)
# Probe 108 (0.45685 0.53444 0)
# Probe 109 (0.45181 0.54286 0)
# Probe 110 (0.44761 0.55173 0)
# Probe 111 (0.44431 0.56097 0)
# Probe 112 (0.44192 0.57049 0)
# Probe 113 (0.44048 0.5802 0)
# Probe 114 (0.44048 0.5998 0)
# Probe 115 (0.44192 0.60951 0)
# Probe 116 (0.44431 0.61903 0)
# Probe 117 (0.44761 0.62827 0)
# Probe 118 (0.45181 0.63714 0)
# Probe 119 (0.45685 0.64556 0)
# Probe 120 (0.4627 0.65344 0)
# Probe 121 (0.46929 0.66071 0)
# Probe 122 (0.47656 0.6673 0)
# Probe 123 (0.48444 0.67315 0)
# Probe 124 (0.49286 0.67819 0)
# Probe 125 (0.50173 0.68239 0)
# Probe 126 (0.51097 0.68569 0)
# Probe 127 (0.52049 0.68808 0)
# Probe 128 (0.5302 0.68952 0)
# Probe 129 (0.5498 0.68952 0)
# Probe 130 (0.55951 0.68808 0)
# Probe 131 (0.56903 0.68569 0)
# Probe 132 (0.57827 0.68239 0)
# Probe 133 (0.58714 0.67819 0)
# Probe 134 (0.59556 0.67315 0)
# Probe 135 (0.60344 0.6673 0)
# Probe 136 (0.61071 0.66071 0)
# Probe 137 (0.6173 0.65344 0)
# Probe 138 (0.62315 0.64556 0)
# Probe 139 (0.62819 0.63714 0)
# Probe 140 (0.63239 0.62827 0)
# Probe 141 (0.63569 0.61903 0)
# Probe 142 (0.63808 0.60951 0)
# Probe 143 (0.63952 0.5998 0)
# Probe 144 (0.32871 0.04086 0)
# Probe 145 (0.03684 0.32075 0)
# Probe 146 (0.72283 0.04356 0)
# Probe 147 (0.48111 0.04829 0)
# Probe 148 (0.95389 0.32824 0)
# Probe 149 (0.0478 0.72455 0)
# Probe 150 (0.04296 0.47676 0)
# Probe 151 (0.275 0.9567 0)
# Probe 152 (0.96032 0.7746 0)
# Probe 153 (0.95935 0.47166 0)
# Probe 154 (0.72677 0.9582 0)
# Probe 155 (0.95679 0.62337 0)
# Probe 156 (0.41567 0.96074 0)
# Probe 157 (0.575 0.9567 0)
# Probe 158 (0.04302 0.17455 0)
# Probe 159 (0.95533 0.17191 0)
# Probe 160 (0.17179 0.04803 0)
# Probe 161 (0.82517 0.95077 0)
# Probe 162 (0.16999 0.95621 0)
# Probe 163 (0.04319 0.57893 0)
# Probe 164 (0.04104 0.82874 0)
# Probe 165 (0.57375 0.0426 0)
# Probe 166 (0.82389 0.04241 0)
# Probe 167 (0.95149 0.87032 0)
# Probe 168 (0.0484 0.92452 0)
# Probe 169 (0.04196 0.07757 0)
# Probe 170 (0.92357 0.04597 0)
# Probe 171 (0.9221 0.95266 0)
# Probe 172 (0.04135 0.52572 0)
# Probe 173 (0.08162 0.49967 0)
# Probe 174 (0.08341 0.45612 0)
# Probe 175 (0.11956 0.47678 0)
# Probe 176 (0.1203 0.43673 0)
# Probe 177 (0.15396 0.45835 0)
# Probe 178 (0.15381 0.49532 0)
# Probe 179 (0.18539 0.47746 0)
# Probe 180 (0.18509 0.51297 0)
# Probe 181 (0.18613 0.44196 0)
# Probe 182 (0.21672 0.46092 0)
# Probe 183 (0.21802 0.42813 0)
# Probe 184 (0.24586 0.44403 0)
# Probe 185 (0.24747 0.41348 0)
# Probe 186 (0.27338 0.42909 0)
# Probe 187 (0.44691 0.53385 0)
# Probe 188 (0.27455 0.39838 0)
# Probe 189 (0.27284 0.45679 0)
# Probe 190 (0.30265 0.41788 0)
# Probe 191 (0.30069 0.38477 0)
# Probe 192 (0.32666 0.40001 0)
# Probe 193 (0.46727 0.50967 0)
# Probe 194 (0.32624 0.37048 0)
# Probe 195 (0.34945 0.38595 0)
# Probe 196 (0.35253 0.35881 0)
# Probe 197 (0.3756 0.37469 0)
# Probe 198 (0.37788 0.34649 0)
# Probe 199 (0.40135 0.35902 0)
# Probe 200 (0.50383 0.48963 0)
# Probe 201 (0.32772 0.33941 0)
# Probe 202 (0.40217 0.33197 0)
# Probe 203 (0.42529 0.34649 0)
# Probe 204 (0.42658 0.31884 0)
# Probe 205 (0.45006 0.33362 0)
# Probe 206 (0.40351 0.30474 0)
# Probe 207 (0.45116 0.30581 0)
# Probe 208 (0.47501 0.32054 0)
# Probe 209 (0.47615 0.29241 0)
# Probe 210 (0.49963 0.30776 0)
# Probe 211 (0.53468 0.48175 0)
# Probe 212 (0.24541 0.38593 0)
# Probe 213 (0.35038 0.41373 0)
# Probe 214 (0.49855 0.3352 0)
# Probe 215 (0.52264 0.3231 0)
# Probe 216 (0.52466 0.29512 0)
# Probe 217 (0.54839 0.31114 0)
# Probe 218 (0.55108 0.28168 0)
# Probe 219 (0.57555 0.29879 0)
# Probe 220 (0.57278 0.32799 0)
# Probe 221 (0.59972 0.31621 0)
# Probe 222 (0.56616 0.48546 0)
# Probe 223 (0.59757 0.34494 0)
# Probe 224 (0.62372 0.33285 0)
# Probe 225 (0.6176 0.36062 0)
# Probe 226 (0.59561 0.4974 0)
# Probe 227 (0.64489 0.35402 0)
# Probe 228 (0.65005 0.32097 0)
# Probe 229 (0.67405 0.3387 0)
# Probe 230 (0.67083 0.36781 0)
# Probe 231 (0.67811 0.30754 0)
# Probe 232 (0.57734 0.26755 0)
# Probe 233 (0.69771 0.3565 0)
# Probe 234 (0.69499 0.38523 0)
# Probe 235 (0.62051 0.51752 0)
# Probe 236 (0.72134 0.37407 0)
# Probe 237 (0.71855 0.40282 0)
# Probe 238 (0.42351 0.37141 0)
# Probe 239 (0.74515 0.39122 0)
# Probe 240 (0.74128 0.42007 0)
# Probe 241 (0.74793 0.35611 0)
# Probe 242 (0.43786 0.55321 0)
# Probe 243 (0.48455 0.49751 0)
# Probe 244 (0.6327 0.53397 0)
# Probe 245 (0.71494 0.43136 0)
# Probe 246 (0.73727 0.44899 0)
# Probe 247 (0.55244 0.24896 0)
# Probe 248 (0.59479 0.37123 0)
# Probe 249 (0.66917 0.39715 0)
# Probe 250 (0.58034 0.23403 0)
# Probe 251 (0.76377 0.43805 0)
# Probe 252 (0.75871 0.46621 0)
# Probe 253 (0.73329 0.47644 0)
# Probe 254 (0.75352 0.49342 0)
# Probe 255 (0.64533 0.56362 0)
# Probe 256 (0.72931 0.50214 0)
# Probe 257 (0.74815 0.51731 0)
# Probe 258 (0.77325 0.51071 0)
# Probe 259 (0.76359 0.53746 0)
# Probe 260 (0.79367 0.52878 0)
# Probe 261 (0.78716 0.55612 0)
# Probe 262 (0.76081 0.56565 0)
# Probe 263 (0.64749 0.60615 0)
# Probe 264 (0.78104 0.58302 0)
# Probe 265 (0.64893 0.58553 0)
# Probe 266 (0.75597 0.59123 0)
# Probe 267 (0.77492 0.60858 0)
# Probe 268 (0.75079 0.61529 0)
# Probe 269 (0.7687 0.63312 0)
# Probe 270 (0.74182 0.63867 0)
# Probe 271 (0.76243 0.65753 0)
# Probe 272 (0.63296 0.64572 0)
# Probe 273 (0.73843 0.66412 0)
# Probe 274 (0.75676 0.682 0)
# Probe 275 (0.72853 0.68773 0)
# Probe 276 (0.7504 0.70694 0)
# Probe 277 (0.72533 0.71424 0)
# Probe 278 (0.61234 0.67022 0)
# Probe 279 (0.74514 0.73315 0)
# Probe 280 (0.71868 0.741 0)
# Probe 281 (0.64225 0.62679 0)
# Probe 282 (0.78215 0.67422 0)
# Probe 283 (0.73915 0.76116 0)
# Probe 284 (0.711 0.76902 0)
# Probe 285 (0.76719 0.75307 0)
# Probe 286 (0.68755 0.74685 0)
# Probe 287 (0.6825 0.77577 0)
# Probe 288 (0.58603 0.68866 0)
# Probe 289 (0.71153 0.48682 0)
# Probe 290 (0.66141 0.75785 0)
# Probe 291 (0.65661 0.78456 0)
# Probe 292 (0.63868 0.76496 0)
# Probe 293 (0.63042 0.79031 0)
# Probe 294 (0.55555 0.69713 0)
# Probe 295 (0.61374 0.76777 0)
# Probe 296 (0.60525 0.79545 0)
# Probe 297 (0.58807 0.7775 0)
# Probe 298 (0.58002 0.80224 0)
# Probe 299 (0.56242 0.78086 0)
# Probe 300 (0.52399 0.69688 0)
# Probe 301 (0.55538 0.80852 0)
# Probe 302 (0.53576 0.78613 0)
# Probe 303 (0.52999 0.81516 0)
# Probe 304 (0.51166 0.79706 0)
# Probe 305 (0.6217 0.81876 0)
# Probe 306 (0.76111 0.78312 0)
# Probe 307 (0.72468 0.52688 0)
# Probe 308 (0.55272 0.21422 0)
# Probe 309 (0.70487 0.69969 0)
# Probe 310 (0.50455 0.82279 0)
# Probe 311 (0.48614 0.8036 0)
# Probe 312 (0.49366 0.68797 0)
# Probe 313 (0.81601 0.54773 0)
# Probe 314 (0.49281 0.77929 0)
# Probe 315 (0.46881 0.78475 0)
# Probe 316 (0.46061 0.8098 0)
# Probe 317 (0.44324 0.78965 0)
# Probe 318 (0.43407 0.81542 0)
# Probe 319 (0.41606 0.79452 0)
# Probe 320 (0.42858 0.76669 0)
# Probe 321 (0.39924 0.77325 0)
# Probe 322 (0.43487 0.61633 0)
# Probe 323 (0.4463 0.64663 0)
# Probe 324 (0.46693 0.66998 0)
# Probe 325 (0.43144 0.59593 0)
# Probe 326 (0.4324 0.57457 0)
# Probe 327 (0.40766 0.74513 0)
# Probe 328 (0.38137 0.75189 0)
# Probe 329 (0.37187 0.77827 0)
# Probe 330 (0.35466 0.75685 0)
# Probe 331 (0.36436 0.73125 0)
# Probe 332 (0.33805 0.73516 0)
# Probe 333 (0.34854 0.71212 0)
# Probe 334 (0.32171 0.71383 0)
# Probe 335 (0.33583 0.6894 0)
# Probe 336 (0.30529 0.69263 0)
# Probe 337 (0.29337 0.71875 0)
# Probe 338 (0.2749 0.69624 0)
# Probe 339 (0.31676 0.66749 0)
# Probe 340 (0.26319 0.72397 0)
# Probe 341 (0.24282 0.69918 0)
# Probe 342 (0.34389 0.78359 0)
# Probe 343 (0.23086 0.72937 0)
# Probe 344 (0.34218 0.66316 0)
# Probe 345 (0.32643 0.64303 0)
# Probe 346 (0.21013 0.70291 0)
# Probe 347 (0.22471 0.6675 0)
# Probe 348 (0.37238 0.71045 0)
# Probe 349 (0.35083 0.64052 0)
# Probe 350 (0.33632 0.62064 0)
# Probe 351 (0.3114 0.62239 0)
# Probe 352 (0.322 0.60014 0)
# Probe 353 (0.29643 0.60159 0)
# Probe 354 (0.34589 0.59849 0)
# Probe 355 (0.33267 0.579 0)
# Probe 356 (0.35832 0.57759 0)
# Probe 357 (0.34319 0.5592 0)
# Probe 358 (0.36403 0.55711 0)
# Probe 359 (0.35201 0.54028 0)
# Probe 360 (0.37415 0.53831 0)
# Probe 361 (0.361 0.52208 0)
# Probe 362 (0.38123 0.52042 0)
# Probe 363 (0.1893 0.67481 0)
# Probe 364 (0.58368 0.19901 0)
# Probe 365 (0.73542 0.59896 0)
# Probe 366 (0.33065 0.54188 0)
# Probe 367 (0.19729 0.7349 0)
# Probe 368 (0.21914 0.76255 0)
# Probe 369 (0.79189 0.77395 0)
# Probe 370 (0.71956 0.65098 0)
# Probe 371 (0.47652 0.76207 0)
# Probe 372 (0.82225 0.51242 0)
# Probe 373 (0.70279 0.79605 0)
# Probe 374 (0.3693 0.50424 0)
# Probe 375 (0.38936 0.50197 0)
# Probe 376 (0.40619 0.82168 0)
# Probe 377 (0.80118 0.60103 0)
# Probe 378 (0.18965 0.40535 0)
# Probe 379 (0.77426 0.37823 0)
# Probe 380 (0.77965 0.34701 0)
# Probe 381 (0.80619 0.36718 0)
# Probe 382 (0.81079 0.33372 0)
# Probe 383 (0.78371 0.31215 0)
# Probe 384 (0.81387 0.29753 0)
# Probe 385 (0.78566 0.27532 0)
# Probe 386 (0.45158 0.8365 0)
# Probe 387 (0.84692 0.53909 0)
# Probe 388 (0.61606 0.22068 0)
# Probe 389 (0.61682 0.18287 0)
# Probe 390 (0.6495 0.20214 0)
# Probe 391 (0.45158 0.27675 0)
# Probe 392 (0.64689 0.74315 0)
# Probe 393 (0.78474 0.80677 0)
# Probe 394 (0.36795 0.59461 0)
# Probe 395 (0.81905 0.25919 0)
# Probe 396 (0.78917 0.2363 0)
# Probe 397 (0.55353 0.17917 0)
# Probe 398 (0.52105 0.19702 0)
# Probe 399 (0.54481 0.76676 0)
# Probe 400 (0.20072 0.64048 0)
# Probe 401 (0.34924 0.50633 0)
# Probe 402 (0.18329 0.76909 0)
# Probe 403 (0.20697 0.79811 0)
# Probe 404 (0.8185 0.79616 0)
# Probe 405 (0.82525 0.76074 0)
# Probe 406 (0.37772 0.48662 0)
# Probe 407 (0.39688 0.4853 0)
# Probe 408 (0.57532 0.82607 0)
# Probe 409 (0.52361 0.84312 0)
# Probe 410 (0.52049 0.34962 0)
# Probe 411 (0.49835 0.36076 0)
# Probe 412 (0.51832 0.37384 0)
# Probe 413 (0.49888 0.38438 0)
# Probe 414 (0.5164 0.3961 0)
# Probe 415 (0.49897 0.40562 0)
# Probe 416 (0.51542 0.41673 0)
# Probe 417 (0.49816 0.42489 0)
# Probe 418 (0.48251 0.41519 0)
# Probe 419 (0.48318 0.43622 0)
# Probe 420 (0.46694 0.425 0)
# Probe 421 (0.46673 0.44271 0)
# Probe 422 (0.45121 0.43356 0)
# Probe 423 (0.53245 0.40773 0)
# Probe 424 (0.53072 0.42641 0)
# Probe 425 (0.54719 0.41877 0)
# Probe 426 (0.45119 0.45126 0)
# Probe 427 (0.43506 0.44253 0)
# Probe 428 (0.59353 0.75531 0)
# Probe 429 (0.16806 0.6472 0)
# Probe 430 (0.15445 0.53114 0)
# Probe 431 (0.54572 0.43607 0)
# Probe 432 (0.56127 0.42892 0)
# Probe 433 (0.82585 0.21984 0)
# Probe 434 (0.79402 0.19499 0)
# Probe 435 (0.40786 0.49975 0)
# Probe 436 (0.65019 0.16593 0)
# Probe 437 (0.83167 0.17766 0)
# Probe 438 (0.38327 0.55457 0)
# Probe 439 (0.49838 0.44226 0)
# Probe 440 (0.38606 0.46907 0)
# Probe 441 (0.36578 0.47027 0)
# Probe 442 (0.85808 0.25108 0)
# Probe 443 (0.16843 0.80513 0)
# Probe 444 (0.83924 0.35558 0)
# Probe 445 (0.83372 0.39501 0)
# Probe 446 (0.85529 0.50482 0)
# Probe 447 (0.81073 0.83162 0)
# Probe 448 (0.77679 0.84146 0)
# Probe 449 (0.52203 0.15937 0)
# Probe 450 (0.4893 0.17582 0)
# Probe 451 (0.2434 0.79101 0)
# Probe 452 (0.23153 0.82725 0)
# Probe 453 (0.15295 0.6808 0)
# Probe 454 (0.7544 0.25027 0)
# Probe 455 (0.46585 0.45982 0)
# Probe 456 (0.45153 0.47019 0)
# Probe 457 (0.56144 0.44638 0)
# Probe 458 (0.5761 0.43804 0)
# Probe 459 (0.84766 0.82089 0)
# Probe 460 (0.86777 0.37999 0)
# Probe 461 (0.87961 0.5289 0)
# Probe 462 (0.87194 0.564 0)
# Probe 463 (0.1855 0.54778 0)
# Probe 464 (0.21445 0.53014 0)
# Probe 465 (0.12951 0.65026 0)
# Probe 466 (0.78668 0.45651 0)
# Probe 467 (0.49716 0.75676 0)
# Probe 468 (0.48294 0.74167 0)
# Probe 469 (0.50047 0.73687 0)
# Probe 470 (0.68217 0.18547 0)
# Probe 471 (0.26802 0.82091 0)
# Probe 472 (0.79713 0.15215 0)
# Probe 473 (0.36503 0.65808 0)
# Probe 474 (0.21202 0.55789 0)
# Probe 475 (0.24173 0.55035 0)
# Probe 476 (0.54908 0.40087 0)
# Probe 477 (0.37323 0.63869 0)
# Probe 478 (0.38575 0.65389 0)
# Probe 479 (0.39306 0.637 0)
# Probe 480 (0.40477 0.65087 0)
# Probe 481 (0.39813 0.66773 0)
# Probe 482 (0.41544 0.66431 0)
# Probe 483 (0.41017 0.68052 0)
# Probe 484 (0.42656 0.67729 0)
# Probe 485 (0.42148 0.69337 0)
# Probe 486 (0.43805 0.69046 0)
# Probe 487 (0.4328 0.70616 0)
# Probe 488 (0.44949 0.70334 0)
# Probe 489 (0.44381 0.71932 0)
# Probe 490 (0.68487 0.14867 0)
# Probe 491 (0.65055 0.12742 0)
# Probe 492 (0.57702 0.42138 0)
# Probe 493 (0.59112 0.43178 0)
# Probe 494 (0.58997 0.44726 0)
# Probe 495 (0.60538 0.44278 0)
# Probe 496 (0.6076 0.42465 0)
# Probe 497 (0.62185 0.4365 0)
# Probe 498 (0.61916 0.45455 0)
# Probe 499 (0.63598 0.44826 0)
# Probe 500 (0.63265 0.46634 0)
# Probe 501 (0.65007 0.46004 0)
# Probe 502 (0.64611 0.47767 0)
# Probe 503 (0.86204 0.41069 0)
# Probe 504 (0.53022 0.44327 0)
# Probe 505 (0.14471 0.77541 0)
# Probe 506 (0.46678 0.40603 0)
# Probe 507 (0.28506 0.62564 0)
# Probe 508 (0.48893 0.72419 0)
# Probe 509 (0.62954 0.48268 0)
# Probe 510 (0.64084 0.49538 0)
# Probe 511 (0.65849 0.48951 0)
# Probe 512 (0.6547 0.50586 0)
# Probe 513 (0.25587 0.85558 0)
# Probe 514 (0.29156 0.84975 0)
# Probe 515 (0.55583 0.1442 0)
# Probe 516 (0.21768 0.86413 0)
# Probe 517 (0.41471 0.48456 0)
# Probe 518 (0.42419 0.49866 0)
# Probe 519 (0.41807 0.51273 0)
# Probe 520 (0.43514 0.42344 0)
# Probe 521 (0.41844 0.4321 0)
# Probe 522 (0.47824 0.26262 0)
# Probe 523 (0.4527 0.24701 0)
# Probe 524 (0.68022 0.2226 0)
# Probe 525 (0.48974 0.13896 0)
# Probe 526 (0.45533 0.15738 0)
# Probe 527 (0.83917 0.85935 0)
# Probe 528 (0.15645 0.56491 0)
# Probe 529 (0.67206 0.5011 0)
# Probe 530 (0.66729 0.51736 0)
# Probe 531 (0.89295 0.41549 0)
# Probe 532 (0.65266 0.28908 0)
# Probe 533 (0.62449 0.41803 0)
# Probe 534 (0.54066 0.36374 0)
# Probe 535 (0.68403 0.51284 0)
# Probe 536 (0.67914 0.52915 0)
# Probe 537 (0.66364 0.53335 0)
# Probe 538 (0.67277 0.5473 0)
# Probe 539 (0.26907 0.60335 0)
# Probe 540 (0.086 0.41365 0)
# Probe 541 (0.83703 0.13417 0)
# Probe 542 (0.87648 0.34169 0)
# Probe 543 (0.65388 0.4411 0)
# Probe 544 (0.6679 0.45396 0)
# Probe 545 (0.4329 0.51111 0)
# Probe 546 (0.43896 0.49805 0)
# Probe 547 (0.41042 0.63498 0)
# Probe 548 (0.40059 0.62188 0)
# Probe 549 (0.46631 0.47567 0)
# Probe 550 (0.4785 0.46812 0)
# Probe 551 (0.24218 0.5152 0)
# Probe 552 (0.26822 0.52975 0)
# Probe 553 (0.90816 0.55339 0)
# Probe 554 (0.50419 0.71999 0)
# Probe 555 (0.51876 0.7304 0)
# Probe 556 (0.12169 0.39797 0)
# Probe 557 (0.69057 0.54121 0)
# Probe 558 (0.68556 0.55819 0)
# Probe 559 (0.70285 0.55343 0)
# Probe 560 (0.69755 0.57024 0)
# Probe 561 (0.68086 0.57429 0)
# Probe 562 (0.69186 0.5863 0)
# Probe 563 (0.67605 0.58972 0)
# Probe 564 (0.68647 0.60154 0)
# Probe 565 (0.48019 0.37416 0)
# Probe 566 (0.42723 0.5242 0)
# Probe 567 (0.41278 0.52649 0)
# Probe 568 (0.37478 0.4518 0)
# Probe 569 (0.35367 0.45312 0)
# Probe 570 (0.71877 0.56682 0)
# Probe 571 (0.41515 0.71047 0)
# Probe 572 (0.12789 0.81192 0)
# Probe 573 (0.28055 0.78328 0)
# Probe 574 (0.45638 0.11782 0)
# Probe 575 (0.42125 0.13684 0)
# Probe 576 (0.41928 0.17424 0)
# Probe 577 (0.38652 0.15621 0)
# Probe 578 (0.38423 0.19309 0)
# Probe 579 (0.3526 0.17482 0)
# Probe 580 (0.35184 0.21355 0)
# Probe 581 (0.31937 0.19376 0)
# Probe 582 (0.31901 0.23177 0)
# Probe 583 (0.28575 0.21244 0)
# Probe 584 (0.28612 0.17317 0)
# Probe 585 (0.25136 0.19277 0)
# Probe 586 (0.25147 0.23251 0)
# Probe 587 (0.21627 0.21293 0)
# Probe 588 (0.21649 0.25384 0)
# Probe 589 (0.18084 0.23365 0)
# Probe 590 (0.18056 0.19202 0)
# Probe 591 (0.18107 0.27522 0)
# Probe 592 (0.14467 0.25455 0)
# Probe 593 (0.2513 0.15167 0)
# Probe 594 (0.25462 0.27647 0)
# Probe 595 (0.14511 0.29664 0)
# Probe 596 (0.18188 0.31595 0)
# Probe 597 (0.35287 0.13604 0)
# Probe 598 (0.35029 0.25098 0)
# Probe 599 (0.31915 0.26793 0)
# Probe 600 (0.42252 0.09561 0)
# Probe 601 (0.10798 0.27582 0)
# Probe 602 (0.42203 0.53688 0)
# Probe 603 (0.44362 0.67378 0)
# Probe 604 (0.66892 0.60524 0)
# Probe 605 (0.68069 0.61704 0)
# Probe 606 (0.69736 0.61329 0)
# Probe 607 (0.69157 0.6293 0)
# Probe 608 (0.67522 0.63231 0)
# Probe 609 (0.68568 0.64494 0)
# Probe 610 (0.66924 0.64744 0)
# Probe 611 (0.67951 0.66031 0)
# Probe 612 (0.6641 0.66225 0)
# Probe 613 (0.67446 0.67574 0)
# Probe 614 (0.6559 0.67642 0)
# Probe 615 (0.66747 0.69219 0)
# Probe 616 (0.65005 0.69422 0)
# Probe 617 (0.63935 0.68144 0)
# Probe 618 (0.63348 0.69631 0)
# Probe 619 (0.71886 0.17065 0)
# Probe 620 (0.72239 0.12867 0)
# Probe 621 (0.41821 0.4128 0)
# Probe 622 (0.40072 0.42181 0)
# Probe 623 (0.11462 0.68663 0)
# Probe 624 (0.08921 0.65724 0)
# Probe 625 (0.10689 0.61905 0)
# Probe 626 (0.15452 0.8445 0)
# Probe 627 (0.1128 0.85151 0)
# Probe 628 (0.10753 0.23224 0)
# Probe 629 (0.88717 0.4931 0)
# Probe 630 (0.34965 0.28453 0)
# Probe 631 (0.12173 0.55327 0)
# Probe 632 (0.28793 0.13183 0)
# Probe 633 (0.2513 0.10866 0)
# Probe 634 (0.21165 0.12765 0)
# Probe 635 (0.66131 0.70891 0)
# Probe 636 (0.67638 0.48342 0)
# Probe 637 (0.40736 0.53973 0)
# Probe 638 (0.41707 0.55018 0)
# Probe 639 (0.87815 0.84608 0)
# Probe 640 (0.87388 0.88907 0)
# Probe 641 (0.67615 0.43197 0)
# Probe 642 (0.10058 0.77931 0)
# Probe 643 (0.88392 0.80632 0)
# Probe 644 (0.28339 0.58017 0)
# Probe 645 (0.87285 0.1608 0)
# Probe 646 (0.46338 0.74602 0)
# Probe 647 (0.87974 0.11721 0)
# Probe 648 (0.42711 0.2628 0)
# Probe 649 (0.362 0.80791 0)
# Probe 650 (0.25719 0.6278 0)
# Probe 651 (0.49613 0.85149 0)
# Probe 652 (0.51747 0.8741 0)
# Probe 653 (0.48573 0.88323 0)
# Probe 654 (0.50971 0.90808 0)
# Probe 655 (0.54804 0.89689 0)
# Probe 656 (0.41668 0.45183 0)
# Probe 657 (0.34402 0.47287 0)
# Probe 658 (0.32987 0.45789 0)
# Probe 659 (0.31899 0.47946 0)
# Probe 660 (0.89869 0.59045 0)
# Probe 661 (0.8576 0.60085 0)
# Probe 662 (0.88805 0.62727 0)
# Probe 663 (0.85328 0.63769 0)
# Probe 664 (0.88005 0.66383 0)
# Probe 665 (0.84517 0.67408 0)
# Probe 666 (0.87073 0.69983 0)
# Probe 667 (0.90851 0.69038 0)
# Probe 668 (0.89832 0.72701 0)
# Probe 669 (0.4459 0.50883 0)
# Probe 670 (0.45397 0.49603 0)
# Probe 671 (0.13924 0.88646 0)
# Probe 672 (0.46102 0.71571 0)
# Probe 673 (0.46562 0.70006 0)
# Probe 674 (0.27735 0.88992 0)
# Probe 675 (0.32101 0.87711 0)
# Probe 676 (0.43668 0.40374 0)
# Probe 677 (0.65803 0.54685 0)
# Probe 678 (0.11194 0.31779 0)
# Probe 679 (0.49482 0.71012 0)
# Probe 680 (0.64134 0.51131 0)
# Probe 681 (0.79212 0.42741 0)
# Probe 682 (0.82077 0.45262 0)
# Probe 683 (0.24158 0.60572 0)
# Probe 684 (0.65338 0.64977 0)
# Probe 685 (0.79754 0.10967 0)
# Probe 686 (0.81737 0.65112 0)
# Probe 687 (0.60999 0.40528 0)
# Probe 688 (0.62989 0.39723 0)
# Probe 689 (0.93559 0.71513 0)
# Probe 690 (0.48326 0.23329 0)
# Probe 691 (0.33243 0.81176 0)
# Probe 692 (0.35261 0.83669 0)
# Probe 693 (0.47461 0.91744 0)
# Probe 694 (0.45002 0.8896 0)
# Probe 695 (0.17905 0.61451 0)
# Probe 696 (0.50784 0.70508 0)
# Probe 697 (0.26781 0.50078 0)
# Probe 698 (0.29149 0.51406 0)
# Probe 699 (0.29315 0.53796 0)
# Probe 700 (0.66654 0.5778 0)
# Probe 701 (0.68281 0.27642 0)
# Probe 702 (0.70995 0.29754 0)
# Probe 703 (0.39982 0.40137 0)
# Probe 704 (0.83587 0.70763 0)
# Probe 705 (0.41683 0.62004 0)
# Probe 706 (0.40743 0.60757 0)
# Probe 707 (0.42403 0.63398 0)
# Probe 708 (0.39256 0.60864 0)
# Probe 709 (0.39963 0.59509 0)
# Probe 710 (0.42449 0.22861 0)
# Probe 711 (0.69954 0.6602 0)
# Probe 712 (0.85773 0.467 0)
# Probe 713 (0.89408 0.45656 0)
# Probe 714 (0.07032 0.25335 0)
# Probe 715 (0.27191 0.64851 0)
# Probe 716 (0.65041 0.53772 0)
# Probe 717 (0.48748 0.09679 0)
# Probe 718 (0.08171 0.37662 0)
# Probe 719 (0.683 0.70601 0)
# Probe 720 (0.62337 0.6836 0)
# Probe 721 (0.6175 0.69822 0)
# Probe 722 (0.62681 0.71118 0)
# Probe 723 (0.6103 0.71286 0)
# Probe 724 (0.61971 0.72797 0)
# Probe 725 (0.62996 0.67195 0)
# Probe 726 (0.60275 0.72766 0)
# Probe 727 (0.59354 0.71431 0)
# Probe 728 (0.58592 0.72796 0)
# Probe 729 (0.57745 0.71527 0)
# Probe 730 (0.56984 0.72905 0)
# Probe 731 (0.56141 0.71509 0)
# Probe 732 (0.55393 0.73021 0)
# Probe 733 (0.54554 0.71748 0)
# Probe 734 (0.56251 0.74367 0)
# Probe 735 (0.64124 0.668 0)
# Probe 736 (0.60708 0.68778 0)
# Probe 737 (0.537 0.73113 0)
# Probe 738 (0.39402 0.68529 0)
# Probe 739 (0.41481 0.59445 0)
# Probe 740 (0.40692 0.5819 0)
# Probe 741 (0.39278 0.58193 0)
# Probe 742 (0.40243 0.56869 0)
# Probe 743 (0.41426 0.56984 0)
# Probe 744 (0.35985 0.67811 0)
# Probe 745 (0.36216 0.61777 0)
# Probe 746 (0.37819 0.26633 0)
# Probe 747 (0.13891 0.71717 0)
# Probe 748 (0.43264 0.73783 0)
# Probe 749 (0.50301 0.25395 0)
# Probe 750 (0.47704 0.4818 0)
# Probe 751 (0.48884 0.47503 0)
# Probe 752 (0.49087 0.46274 0)
# Probe 753 (0.50188 0.4689 0)
# Probe 754 (0.53027 0.71739 0)
# Probe 755 (0.52837 0.74397 0)
# Probe 756 (0.53911 0.70737 0)
# Probe 757 (0.67048 0.56379 0)
# Probe 758 (0.09772 0.72275 0)
# Probe 759 (0.69134 0.45024 0)
# Probe 760 (0.29322 0.44258 0)
# Probe 761 (0.45532 0.68644 0)
# Probe 762 (0.47066 0.68682 0)
# Probe 763 (0.47941 0.6957 0)
# Probe 764 (0.32054 0.30261 0)
# Probe 765 (0.44526 0.48434 0)
# Probe 766 (0.70949 0.62406 0)
# Probe 767 (0.80993 0.47905 0)
# Probe 768 (0.66026 0.59082 0)
# Probe 769 (0.65104 0.52329 0)
# Probe 770 (0.5131 0.77155 0)
# Probe 771 (0.24757 0.47896 0)
# Probe 772 (0.47898 0.71007 0)
# Probe 773 (0.30706 0.9169 0)
# Probe 774 (0.3469 0.90974 0)
# Probe 775 (0.82768 0.90127 0)
# Probe 776 (0.28624 0.08832 0)
# Probe 777 (0.25128 0.0622 0)
# Probe 778 (0.29341 0.4895 0)
# Probe 779 (0.54412 0.45252 0)
# Probe 780 (0.55683 0.46111 0)
# Probe 781 (0.53031 0.45856 0)
# Probe 782 (0.51808 0.45109 0)
# Probe 783 (0.54239 0.46568 0)
# Probe 784 (0.55345 0.47418 0)
# Probe 785 (0.56584 0.46926 0)
# Probe 786 (0.51774 0.46525 0)
# Probe 787 (0.57083 0.45865 0)
# Probe 788 (0.5792 0.4688 0)
# Probe 789 (0.46619 0.48889 0)
# Probe 790 (0.42259 0.64858 0)
# Probe 791 (0.43211 0.66277 0)
# Probe 792 (0.44472 0.65963 0)
# Probe 793 (0.09021 0.89292 0)
# Probe 794 (0.12787 0.92697 0)
# Probe 795 (0.61701 0.4719 0)
# Probe 796 (0.61537 0.48764 0)
# Probe 797 (0.60487 0.47835 0)
# Probe 798 (0.62556 0.49651 0)
# Probe 799 (0.60231 0.46066 0)
# Probe 800 (0.61385 0.50039 0)
# Probe 801 (0.66074 0.63508 0)
# Probe 802 (0.70673 0.5124 0)
# Probe 803 (0.95489 0.67671 0)
# Probe 804 (0.56777 0.35888 0)
# Probe 805 (0.57527 0.38419 0)
# Probe 806 (0.61008 0.74413 0)
# Probe 807 (0.91904 0.83421 0)
# Probe 808 (0.66578 0.62125 0)
# Probe 809 (0.44195 0.52219 0)
# Probe 810 (0.93441 0.58303 0)
# Probe 811 (0.94932 0.54808 0)
# Probe 812 (0.37779 0.41395 0)
# Probe 813 (0.38751 0.7278 0)
# Probe 814 (0.51276 0.43497 0)
# Probe 815 (0.5021 0.94709 0)
# Probe 816 (0.42137 0.58039 0)
# Probe 817 (0.69278 0.41402 0)
# Probe 818 (0.37443 0.5679 0)
# Probe 819 (0.39522 0.45241 0)
# Probe 820 (0.71353 0.46088 0)
# Probe 821 (0.06627 0.62355 0)
# Probe 822 (0.32778 0.42321 0)
# Probe 823 (0.45295 0.52544 0)
# Probe 824 (0.44651 0.35855 0)
# Probe 825 (0.47568 0.50328 0)
# Probe 826 (0.46023 0.51748 0)
# Probe 827 (0.44201 0.54355 0)
# Probe 828 (0.43438 0.56296 0)
# Probe 829 (0.52484 0.48263 0)
# Probe 830 (0.51367 0.48487 0)
# Probe 831 (0.43367 0.64291 0)
# Probe 832 (0.45462 0.76673 0)
# Probe 833 (0.71897 0.26507 0)
# Probe 834 (0.33279 0.95729 0)
# Probe 835 (0.37659 0.94025 0)
# Probe 836 (0.38713 0.90089 0)
# Probe 837 (0.7393 0.57644 0)
# Probe 838 (0.74045 0.55487 0)
# Probe 839 (0.69884 0.72233 0)
# Probe 840 (0.5765 0.48802 0)
# Probe 841 (0.65661 0.41948 0)
# Probe 842 (0.62703 0.52545 0)
# Probe 843 (0.63952 0.54286 0)
# Probe 844 (0.49461 0.49234 0)
# Probe 845 (0.71801 0.6687 0)
# Probe 846 (0.58633 0.49207 0)
# Probe 847 (0.58402 0.48039 0)
# Probe 848 (0.60115 0.70145 0)
# Probe 849 (0.64883 0.59578 0)
# Probe 850 (0.77445 0.9571 0)
# Probe 851 (0.74955 0.91835 0)
# Probe 852 (0.70652 0.91785 0)
# Probe 853 (0.7291 0.88091 0)
# Probe 854 (0.68887 0.88017 0)
# Probe 855 (0.66674 0.91234 0)
# Probe 856 (0.65059 0.87809 0)
# Probe 857 (0.67227 0.84905 0)
# Probe 858 (0.6273 0.90733 0)
# Probe 859 (0.61405 0.87548 0)
# Probe 860 (0.5877 0.90164 0)
# Probe 861 (0.62413 0.96266 0)
# Probe 862 (0.64204 0.55349 0)
# Probe 863 (0.62727 0.65412 0)
# Probe 864 (0.46012 0.66301 0)
# Probe 865 (0.39805 0.52879 0)
# Probe 866 (0.43241 0.60668 0)
# Probe 867 (0.48275 0.68315 0)
# Probe 868 (0.50284 0.69261 0)
# Probe 869 (0.21532 0.49523 0)
# Probe 870 (0.52864 0.04156 0)
# Probe 871 (0.55009 0.08184 0)
# Probe 872 (0.5944 0.08607 0)
# Probe 873 (0.62236 0.04274 0)
# Probe 874 (0.67337 0.04219 0)
# Probe 875 (0.69899 0.08265 0)
# Probe 876 (0.75369 0.08682 0)
# Probe 877 (0.77303 0.04325 0)
# Probe 878 (0.58559 0.70106 0)
# Probe 879 (0.57134 0.70385 0)
# Probe 880 (0.67442 0.72464 0)
# Probe 881 (0.70914 0.84815 0)
# Probe 882 (0.65883 0.25443 0)
# Probe 883 (0.62751 0.27144 0)
# Probe 884 (0.62154 0.66383 0)
# Probe 885 (0.67423 0.95526 0)
# Probe 886 (0.59578 0.68302 0)
# Probe 887 (0.57606 0.69266 0)
# Probe 888 (0.22683 0.95776 0)
# Probe 889 (0.20648 0.91089 0)
# Probe 890 (0.38594 0.23005 0)
# Probe 891 (0.43526 0.53429 0)
# Probe 892 (0.43847 0.62622 0)
# Probe 893 (0.63747 0.52374 0)
# Probe 894 (0.64728 0.57428 0)
# Probe 895 (0.28974 0.28602 0)
# Probe 896 (0.29559 0.32102 0)
# Probe 897 (0.54545 0.33908 0)
# Probe 898 (0.28301 0.74812 0)
# Probe 899 (0.64544 0.61655 0)
# Probe 900 (0.63801 0.63638 0)
# Probe 901 (0.21683 0.2952 0)
# Probe 902 (0.21407 0.3356 0)
# Probe 903 (0.18414 0.35846 0)
# Probe 904 (0.24385 0.31771 0)
# Probe 905 (0.15066 0.33892 0)
# Probe 906 (0.04646 0.77736 0)
# Probe 907 (0.47292 0.35043 0)
# Probe 908 (0.4007 0.5541 0)
# Probe 909 (0.45668 0.67332 0)
# Probe 910 (0.2475 0.91694 0)
# Probe 911 (0.52987 0.47206 0)
# Probe 912 (0.43615 0.46006 0)
# Probe 913 (0.40539 0.46891 0)
# Probe 914 (0.96118 0.42432 0)
# Probe 915 (0.96118 0.37572 0)
# Probe 916 (0.92124 0.35478 0)
# Probe 917 (0.90939 0.31184 0)
# Probe 918 (0.94236 0.28496 0)
# Probe 919 (0.87083 0.29583 0)
# Probe 920 (0.45028 0.19523 0)
# Probe 921 (0.05016 0.39258 0)
# Probe 922 (0.91661 0.14363 0)
# Probe 923 (0.92218 0.09634 0)
# Probe 924 (0.044 0.66761 0)
# Probe 925 (0.2979 0.35294 0)
# Probe 926 (0.42504 0.04928 0)
# Probe 927 (0.37384 0.04225 0)
# Probe 928 (0.35321 0.08616 0)
# Probe 929 (0.90809 0.18834 0)
# Probe 930 (0.94157 0.21528 0)
# Probe 931 (0.90038 0.27029 0)
# Probe 932 (0.47966 0.45168 0)
# Probe 933 (0.50282 0.45677 0)
# Probe 934 (0.57762 0.87164 0)
# Probe 935 (0.8744 0.95893 0)
# Probe 936 (0.65701 0.56764 0)
# Probe 937 (0.0423 0.87498 0)
# Probe 938 (0.83712 0.57006 0)
# Probe 939 (0.0831 0.54266 0)
# Probe 940 (0.74932 0.29317 0)
# Probe 941 (0.7219 0.22766 0)
# Probe 942 (0.73237 0.32416 0)
# Probe 943 (0.8713 0.04281 0)
# Probe 944 (0.54562 0.48247 0)
# Probe 945 (0.64873 0.38247 0)
# Probe 946 (0.04287 0.12551 0)
# Probe 947 (0.08528 0.14896 0)
# Probe 948 (0.08534 0.10111 0)
# Probe 949 (0.12773 0.12476 0)
# Probe 950 (0.12835 0.1746 0)
# Probe 951 (0.12762 0.07695 0)
# Probe 952 (0.1698 0.10069 0)
# Probe 953 (0.17142 0.14825 0)
# Probe 954 (0.30947 0.58034 0)
# Probe 955 (0.6397 0.65521 0)
# Probe 956 (0.76498 0.87822 0)
# Probe 957 (0.3612 0.87411 0)
# Probe 958 (0.4017 0.86189 0)
# Probe 959 (0.70849 0.58501 0)
# Probe 960 (0.69415 0.47468 0)
# Probe 961 (0.63748 0.84577 0)
# Probe 962 (0.59844 0.84388 0)
# Probe 963 (0.28652 0.25029 0)
# Probe 964 (0.81314 0.68509 0)
# Probe 965 (0.80192 0.71674 0)
# Probe 966 (0.57382 0.7612 0)
# Probe 967 (0.31386 0.50093 0)
# Probe 968 (0.82838 0.61776 0)
# Probe 969 (0.43146 0.54504 0)
# Probe 970 (0.51373 0.6952 0)