# Probe 0 (0 0 0)
# Probe 1 (1 0 0)
# Probe 2 (1 1 0)
# Probe 3 (0 1 0)
# Probe 4 (0.38 0.31 0)
# Probe 5 (0.28 0.21 0)
# Probe 6 (0.18 0.31 0)
# Probe 7 (0.28 0.41 0)
# Probe 8 (0.05 0 0)
# Probe 9 (0.1 0 0)
# Probe 10 (0.15 0 0)
# Probe 11 (0.2 0 0)
# Probe 12 (0.25 0 0)
# Probe 13 (0.3 0 0)
# Probe 14 (0.35 0 0)
# Probe 15 (0.4 0 0)
# Probe 16 (0.45 0 0)
# Probe 17 (0.5 0 0)
# Probe 18 (0.55 0 0)
# Probe 19 (0.6 0 0)
# Probe 20 (0.65 0 0)
# Probe 21 (0.7 0 0)
# Probe 22 (0.75 0 0)
# Probe 23 (0.8 0 0)
# Probe 24 (0.85 0 0)
# Probe 25 (0.9 0 0)
# Probe 26 (0.95 0 0)
# Probe 27 (1 0.05 0)
# Probe 28 (1 0.1 0)
# Probe 29 (1 0.15 0)
# Probe 30 (1 0.2 0)
# Probe 31 (1 0.25 0)
# Probe 32 (1 0.3 0)
# Probe 33 (1 0.35 0)
# Probe 34 (1 0.4 0)
# Probe 35 (1 0.45 0)
# Probe 36 (1 0.5 0)
# Probe 37 (1 0.55 0)
# Probe 38 (1 0.6 0)
# Probe 39 (1 0.65 0)
# Probe 40 (1 0.7 0)
# Probe 41 (1 0.75 0)
# Probe 42 (1 0.8 0)
# Probe 43 (1 0.85 0)
# Probe 44 (1 0.9 0)
# Probe 45 (1 0.95 0)
# Probe 46 (0.95 1 0)
# Probe 47 (0.9 1 0)
# Probe 48 (0.85 1 0)
# Probe 49 (0.8 1 0)
# Probe 50 (0.75 1 0)
# Probe 51 (0.7 1 0)
# Probe 52 (0.65 1 0)
# Probe 53 (0.6 1 0)
# Probe 54 (0.55 1 0)
# Probe 55 (0.5 1 0)
# Probe 56 (0.45 1 0)
# Probe 57 (0.4 1 0)
# Probe 58 (0.35 1 0)
# Probe 59 (0.3 1 0)
# Probe 60 (0.25 1 0)
# Probe 61 (0.2 1 0)
# Probe 62 (0.15 1 0)
# Probe 63 (0.1 1 0)
# Probe 64 (0.05 1 0)
# Probe 65 (0 0.95 0)
# Probe 66 (0 0.9 0)
# Probe 67 (0 0.85 0)
# Probe 68 (0 0.8 0)
# Probe 69 (0 0.75 0)
# Probe 70 (0 0.7 0)
# Probe 71 (0 0.65 0)
# Probe 72 (0 0.6 0)
# Probe 73 (0 0.55 0)
# Probe 74 (0 0.5 0)
# Probe 75 (0 0.45 0)
# Probe 76 (0 0.4 0)
# Probe 77 (0 0.35 0)
# Probe 78 (0 0.3 0)
# Probe 79 (0 0.25 0)
# Probe 80 (0 0.2 0)
# Probe 81 (0 0.15 0)
# Probe 82 (0 0.1 0)
# Probe 83 (0 0.05 0)
# Probe 84 (0.37952 0.3002 0)
# Probe 85 (0.37808 0.29049 0)
# Probe 86 (0.37569 0.28097 0)
# Probe 87 (0.37239 0.27173 0)
# Probe 88 (0.36819 0.26286 0)
# Probe 89 (0.36315 0.25444 0)
# Probe 90 (0.3573 0.24656 0)
# Probe 91 (0.35071 0.23929 0)
# Probe 92 (0.34344 0.2327 0)
# Probe 93 (0.33556 0.22685 0)
# Probe 94 (0.32714 0.22181 0)
# Probe 95 (0.31827 0.21761 0)
# Probe 96 (0.30903 0.21431 0)
# Probe 97 (0.29951 0.21192 0)
# Probe 98 (0.2898 0.21048 0)
# Probe 99 (0.2702 0.21048 0)
# Probe 100 (0.26049 0.21192 0)
# Probe 101 (0.25097 0.21431 0)
# Probe 102 (0.24173 0.21761 0)
# Probe 103 (0.23286 0.22181 0)
# Probe 104 (0.22444 0.22685 0)
# Probe 105 (0.21656 0.2327 0)
# Probe 106 (0.20929 0.23929 0)
# Probe 107 (0.2027 0.24656 0)
# Probe 108 (0.19685 0.25444 0)
# Probe 109 (0.19181 0.26286 0)
# Probe 110 (0.18761 0.27173 0)
# Probe 111 (0.18431 0.28097 0)
# Probe 112 (0.18192 0.29049 0)
# Probe 113 (0.18048 0.3002 0)
# Probe 114 (0.18048 0.3198 0)
# Probe 115 (0.18192 0.32951 0)
# Probe 116 (0.18431 0.33903 0)
# Probe 117 (0.18761 0.34827 0)
# Probe 118 (0.19181 0.35714 0)
# Probe 119 (0.19685 0.36556 0)
# Probe 120 (0.2027 0.37344 0)
# Probe 121 (0.20929 0.38071 0)
# Probe 122 (0.21656 0.3873 0)
# Probe 123 (0.22444 0.39315 0)
# Probe 124 (0.23286 0.39819 0)
# Probe 125 (0.24173 0.40239 0)
# Probe 126 (0.25097 0.40569 0)
# Probe 127 (0.26049 0.40808 0)
# Probe 128 (0.2702 0.40952 0)
# Probe 129 (0.2898 0.40952 0)
# Probe 130 (0.29951 0.40808 0)
# Probe 131 (0.30903 0.40569 0)
# Probe 132 (0.31827 0.40239 0)
# Probe 133 (0.32714 0.39819 0)
# Probe 134 (0.33556 0.39315 0)
# Probe 135 (0.34344 0.3873 0)
# Probe 136 (0.35071 0.38071 0)
# Probe 137 (0.3573 0.37344 0)
# Probe 138 (0.36315 0.36556 0)
# Probe 139 (0.36819 0.35714 0)
# Probe 140 (0.37239 0.34827 0)
# Probe 141 (0.37569 0.33903 0)
# Probe 142 (0.37808 0.32951 0)
# Probe 143 (0.37952 0.3198 0)
# Probe 144 (0.95524 0.62943 0)
# Probe 145 (0.56873 0.9536 0)
# Probe 146 (0.95908 0.42781 0)
# Probe 147 (0.37638 0.9577 0)
# Probe 148 (0.67432 0.03681 0)
# Probe 149 (0.04294 0.67469 0)
# Probe 150 (0.20722 0.2297 0)
# Probe 151 (0.72569 0.95713 0)
# Probe 152 (0.95297 0.27888 0)
# Probe 153 (0.23366 0.21203 0)
# Probe 154 (0.52993 0.03998 0)
# Probe 155 (0.31653 0.20791 0)
# Probe 156 (0.26425 0.20258 0)
# Probe 157 (0.18682 0.25394 0)
# Probe 158 (0.22245 0.96244 0)
# Probe 159 (0.18162 0.35634 0)
# Probe 160 (0.04479 0.52734 0)
# Probe 161 (0.19936 0.38282 0)
# Probe 162 (0.17411 0.28353 0)
# Probe 163 (0.96003 0.77688 0)
# Probe 164 (0.17254 0.32577 0)
# Probe 165 (0.42559 0.04083 0)
# Probe 166 (0.29608 0.20256 0)
# Probe 167 (0.33593 0.21705 0)
# Probe 168 (0.17127 0.30472 0)
# Probe 169 (0.825 0.0433 0)
# Probe 170 (0.17673 0.04617 0)
# Probe 171 (0.04385 0.82221 0)
# Probe 172 (0.03788 0.16381 0)
# Probe 173 (0.04348 0.42637 0)
# Probe 174 (0.32107 0.04007 0)
# Probe 175 (0.47954 0.95662 0)
# Probe 176 (0.96148 0.52452 0)
# Probe 177 (0.9522 0.17334 0)
# Probe 178 (0.82524 0.95709 0)
# Probe 179 (0.04292 0.27774 0)
# Probe 180 (0.13014 0.95635 0)
# Probe 181 (0.95747 0.87086 0)
# Probe 182 (0.04062 0.07491 0)
# Probe 183 (0.9208 0.04507 0)
# Probe 184 (0.04761 0.92281 0)
# Probe 185 (0.9247 0.95857 0)
# Probe 186 (0.04228 0.23446 0)
# Probe 187 (0.08375 0.19779 0)
# Probe 188 (0.07728 0.25654 0)
# Probe 189 (0.08041 0.28772 0)
# Probe 190 (0.10585 0.27122 0)
# Probe 191 (0.10756 0.29906 0)
# Probe 192 (0.08596 0.31723 0)
# Probe 193 (0.11374 0.3288 0)
# Probe 194 (0.09012 0.34584 0)
# Probe 195 (0.11477 0.35701 0)
# Probe 196 (0.12883 0.2825 0)
# Probe 197 (0.12869 0.25844 0)
# Probe 198 (0.09409 0.37414 0)
# Probe 199 (0.12029 0.38184 0)
# Probe 200 (0.13854 0.36481 0)
# Probe 201 (0.14361 0.38957 0)
# Probe 202 (0.12613 0.40563 0)
# Probe 203 (0.15283 0.41176 0)
# Probe 204 (0.13336 0.42883 0)
# Probe 205 (0.15628 0.435 0)
# Probe 206 (0.22469 0.4037 0)
# Probe 207 (0.1393 0.45216 0)
# Probe 208 (0.16247 0.45839 0)
# Probe 209 (0.14578 0.47628 0)
# Probe 210 (0.16957 0.48268 0)
# Probe 211 (0.15176 0.50131 0)
# Probe 212 (0.17707 0.50772 0)
# Probe 213 (0.19243 0.48725 0)
# Probe 214 (0.20363 0.50971 0)
# Probe 215 (0.26359 0.41704 0)
# Probe 216 (0.1848 0.53223 0)
# Probe 217 (0.21058 0.53712 0)
# Probe 218 (0.22737 0.51866 0)
# Probe 219 (0.23531 0.54235 0)
# Probe 220 (0.25131 0.52394 0)
# Probe 221 (0.2596 0.54718 0)
# Probe 222 (0.2433 0.56645 0)
# Probe 223 (0.26849 0.57085 0)
# Probe 224 (0.28454 0.55147 0)
# Probe 225 (0.29369 0.5748 0)
# Probe 226 (0.30983 0.5552 0)
# Probe 227 (0.31885 0.57878 0)
# Probe 228 (0.33465 0.56039 0)
# Probe 229 (0.34408 0.583 0)
# Probe 230 (0.36309 0.56119 0)
# Probe 231 (0.37016 0.58669 0)
# Probe 232 (0.38815 0.56714 0)
# Probe 233 (0.39567 0.59098 0)
# Probe 234 (0.41205 0.57069 0)
# Probe 235 (0.42274 0.59581 0)
# Probe 236 (0.43725 0.57491 0)
# Probe 237 (0.45066 0.60057 0)
# Probe 238 (0.46608 0.57275 0)
# Probe 239 (0.47987 0.60475 0)
# Probe 240 (0.4986 0.58075 0)
# Probe 241 (0.48799 0.55025 0)
# Probe 242 (0.51767 0.55705 0)
# Probe 243 (0.5066 0.52852 0)
# Probe 244 (0.36034 0.38262 0)
# Probe 245 (0.53607 0.53376 0)
# Probe 246 (0.52488 0.50637 0)
# Probe 247 (0.54662 0.56092 0)
# Probe 248 (0.55422 0.51054 0)
# Probe 249 (0.54328 0.48284 0)
# Probe 250 (0.33758 0.4043 0)
# Probe 251 (0.5726 0.48698 0)
# Probe 252 (0.5614 0.45943 0)
# Probe 253 (0.33021 0.60335 0)
# Probe 254 (0.59136 0.46321 0)
# Probe 255 (0.57951 0.4352 0)
# Probe 256 (0.25205 0.59171 0)
# Probe 257 (0.61 0.43917 0)
# Probe 258 (0.59812 0.40964 0)
# Probe 259 (0.62149 0.46706 0)
# Probe 260 (0.43413 0.62359 0)
# Probe 261 (0.30615 0.4154 0)
# Probe 262 (0.62917 0.41582 0)
# Probe 263 (0.61756 0.38363 0)
# Probe 264 (0.58567 0.37941 0)
# Probe 265 (0.38222 0.34498 0)
# Probe 266 (0.40252 0.54522 0)
# Probe 267 (0.60473 0.3534 0)
# Probe 268 (0.57378 0.34912 0)
# Probe 269 (0.38825 0.31532 0)
# Probe 270 (0.63603 0.35536 0)
# Probe 271 (0.53234 0.4563 0)
# Probe 272 (0.59185 0.32422 0)
# Probe 273 (0.37798 0.26388 0)
# Probe 274 (0.56084 0.32019 0)
# Probe 275 (0.57987 0.2953 0)
# Probe 276 (0.54897 0.29092 0)
# Probe 277 (0.54305 0.34443 0)
# Probe 278 (0.56771 0.26529 0)
# Probe 279 (0.60018 0.27005 0)
# Probe 280 (0.53674 0.26295 0)
# Probe 281 (0.32873 0.53688 0)
# Probe 282 (0.37296 0.36572 0)
# Probe 283 (0.38716 0.29455 0)
# Probe 284 (0.36721 0.24536 0)
# Probe 285 (0.28571 0.41799 0)
# Probe 286 (0.24349 0.41204 0)
# Probe 287 (0.51915 0.28708 0)
# Probe 288 (0.508 0.2613 0)
# Probe 289 (0.58705 0.23768 0)
# Probe 290 (0.6225 0.24323 0)
# Probe 291 (0.49278 0.28273 0)
# Probe 292 (0.48192 0.25872 0)
# Probe 293 (0.49671 0.23776 0)
# Probe 294 (0.47075 0.23563 0)
# Probe 295 (0.48497 0.21461 0)
# Probe 296 (0.4595 0.21305 0)
# Probe 297 (0.47344 0.1913 0)
# Probe 298 (0.44735 0.18971 0)
# Probe 299 (0.24376 0.50118 0)
# Probe 300 (0.49641 0.50161 0)
# Probe 301 (0.60764 0.20854 0)
# Probe 302 (0.64487 0.21283 0)
# Probe 303 (0.65963 0.24872 0)
# Probe 304 (0.6829 0.21687 0)
# Probe 305 (0.69801 0.25442 0)
# Probe 306 (0.72231 0.22112 0)
# Probe 307 (0.73793 0.26015 0)
# Probe 308 (0.76326 0.22629 0)
# Probe 309 (0.77921 0.26491 0)
# Probe 310 (0.46836 0.27858 0)
# Probe 311 (0.47712 0.30009 0)
# Probe 312 (0.75361 0.2989 0)
# Probe 313 (0.79489 0.30356 0)
# Probe 314 (0.76941 0.33686 0)
# Probe 315 (0.51089 0.61061 0)
# Probe 316 (0.49092 0.63522 0)
# Probe 317 (0.5229 0.64076 0)
# Probe 318 (0.50174 0.66672 0)
# Probe 319 (0.53555 0.67255 0)
# Probe 320 (0.51281 0.69992 0)
# Probe 321 (0.54768 0.70498 0)
# Probe 322 (0.57097 0.67733 0)
# Probe 323 (0.58134 0.71162 0)
# Probe 324 (0.6079 0.68201 0)
# Probe 325 (0.61908 0.71871 0)
# Probe 326 (0.64633 0.6858 0)
# Probe 327 (0.6604 0.724 0)
# Probe 328 (0.686 0.69176 0)
# Probe 329 (0.70086 0.73046 0)
# Probe 330 (0.52553 0.7334 0)
# Probe 331 (0.48901 0.72738 0)
# Probe 332 (0.72641 0.69841 0)
# Probe 333 (0.71128 0.65958 0)
# Probe 334 (0.74224 0.73732 0)
# Probe 335 (0.62926 0.75728 0)
# Probe 336 (0.75227 0.6647 0)
# Probe 337 (0.73604 0.62745 0)
# Probe 338 (0.5008 0.76159 0)
# Probe 339 (0.46424 0.75551 0)
# Probe 340 (0.69641 0.62176 0)
# Probe 341 (0.72081 0.59054 0)
# Probe 342 (0.76067 0.5955 0)
# Probe 343 (0.74504 0.55839 0)
# Probe 344 (0.71556 0.77026 0)
# Probe 345 (0.75803 0.77735 0)
# Probe 346 (0.78529 0.74331 0)
# Probe 347 (0.45333 0.29625 0)
# Probe 348 (0.46295 0.3157 0)
# Probe 349 (0.44751 0.27614 0)
# Probe 350 (0.19284 0.558 0)
# Probe 351 (0.16559 0.55326 0)
# Probe 352 (0.1736 0.58113 0)
# Probe 353 (0.78546 0.56321 0)
# Probe 354 (0.76917 0.52793 0)
# Probe 355 (0.46191 0.16633 0)
# Probe 356 (0.43464 0.16562 0)
# Probe 357 (0.49053 0.16792 0)
# Probe 358 (0.37779 0.61513 0)
# Probe 359 (0.58475 0.51409 0)
# Probe 360 (0.47591 0.79064 0)
# Probe 361 (0.43908 0.78442 0)
# Probe 362 (0.51212 0.79903 0)
# Probe 363 (0.42665 0.74853 0)
# Probe 364 (0.40157 0.77725 0)
# Probe 365 (0.38936 0.74157 0)
# Probe 366 (0.36445 0.76996 0)
# Probe 367 (0.35238 0.73467 0)
# Probe 368 (0.3277 0.76284 0)
# Probe 369 (0.3152 0.72762 0)
# Probe 370 (0.29102 0.75568 0)
# Probe 371 (0.27833 0.7204 0)
# Probe 372 (0.25388 0.74892 0)
# Probe 373 (0.24155 0.71331 0)
# Probe 374 (0.2163 0.7421 0)
# Probe 375 (0.30307 0.79173 0)
# Probe 376 (0.20372 0.70544 0)
# Probe 377 (0.22913 0.77897 0)
# Probe 378 (0.42071 0.19122 0)
# Probe 379 (0.40834 0.1655 0)
# Probe 380 (0.80282 0.59873 0)
# Probe 381 (0.80183 0.78441 0)
# Probe 382 (0.8108 0.34238 0)
# Probe 383 (0.17819 0.73483 0)
# Probe 384 (0.74674 0.18712 0)
# Probe 385 (0.78939 0.19227 0)
# Probe 386 (0.14352 0.57514 0)
# Probe 387 (0.4437 0.31535 0)
# Probe 388 (0.45065 0.33158 0)
# Probe 389 (0.46974 0.33228 0)
# Probe 390 (0.45713 0.34863 0)
# Probe 391 (0.43887 0.3457 0)
# Probe 392 (0.44427 0.36288 0)
# Probe 393 (0.46285 0.36642 0)
# Probe 394 (0.44945 0.38099 0)
# Probe 395 (0.46886 0.38512 0)
# Probe 396 (0.45513 0.39946 0)
# Probe 397 (0.43606 0.39512 0)
# Probe 398 (0.44136 0.41327 0)
# Probe 399 (0.42315 0.40853 0)
# Probe 400 (0.42806 0.42666 0)
# Probe 401 (0.41039 0.4216 0)
# Probe 402 (0.41491 0.43989 0)
# Probe 403 (0.39734 0.43501 0)
# Probe 404 (0.40207 0.45316 0)
# Probe 405 (0.38429 0.44801 0)
# Probe 406 (0.38907 0.46641 0)
# Probe 407 (0.37111 0.46118 0)
# Probe 408 (0.40616 0.47015 0)
# Probe 409 (0.43336 0.445 0)
# Probe 410 (0.46037 0.41771 0)
# Probe 411 (0.37594 0.47989 0)
# Probe 412 (0.35786 0.4748 0)
# Probe 413 (0.35364 0.45661 0)
# Probe 414 (0.34047 0.46979 0)
# Probe 415 (0.155 0.60705 0)
# Probe 416 (0.78493 0.37513 0)
# Probe 417 (0.37691 0.80721 0)
# Probe 418 (0.38018 0.43016 0)
# Probe 419 (0.26556 0.50659 0)
# Probe 420 (0.25971 0.48616 0)
# Probe 421 (0.41871 0.39218 0)
# Probe 422 (0.6297 0.17782 0)
# Probe 423 (0.8104 0.53037 0)
# Probe 424 (0.39431 0.18653 0)
# Probe 425 (0.38414 0.16383 0)
# Probe 426 (0.35284 0.22963 0)
# Probe 427 (0.40421 0.20722 0)
# Probe 428 (0.177 0.44121 0)
# Probe 429 (0.27844 0.49041 0)
# Probe 430 (0.27221 0.47201 0)
# Probe 431 (0.25507 0.46783 0)
# Probe 432 (0.68184 0.58576 0)
# Probe 433 (0.45119 0.81725 0)
# Probe 434 (0.33628 0.45309 0)
# Probe 435 (0.39559 0.14241 0)
# Probe 436 (0.36984 0.14255 0)
# Probe 437 (0.72911 0.52808 0)
# Probe 438 (0.82657 0.3813 0)
# Probe 439 (0.47746 0.14046 0)
# Probe 440 (0.50883 0.14268 0)
# Probe 441 (0.73043 0.81136 0)
# Probe 442 (0.82404 0.26972 0)
# Probe 443 (0.59375 0.64769 0)
# Probe 444 (0.36016 0.16632 0)
# Probe 445 (0.34504 0.14397 0)
# Probe 446 (0.82957 0.74922 0)
# Probe 447 (0.32371 0.46511 0)
# Probe 448 (0.33998 0.69998 0)
# Probe 449 (0.5101 0.21655 0)
# Probe 450 (0.74438 0.36955 0)
# Probe 451 (0.75932 0.40697 0)
# Probe 452 (0.26625 0.68952 0)
# Probe 453 (0.12293 0.47376 0)
# Probe 454 (0.11978 0.59851 0)
# Probe 455 (0.13577 0.63145 0)
# Probe 456 (0.36297 0.49366 0)
# Probe 457 (0.48295 0.37012 0)
# Probe 458 (0.48944 0.39038 0)
# Probe 459 (0.85325 0.34766 0)
# Probe 460 (0.18608 0.61227 0)
# Probe 461 (0.84674 0.79142 0)
# Probe 462 (0.3342 0.16461 0)
# Probe 463 (0.32131 0.14489 0)
# Probe 464 (0.81783 0.82715 0)
# Probe 465 (0.41384 0.71376 0)
# Probe 466 (0.32059 0.44908 0)
# Probe 467 (0.32759 0.4824 0)
# Probe 468 (0.77221 0.15221 0)
# Probe 469 (0.81647 0.15713 0)
# Probe 470 (0.72987 0.1481 0)
# Probe 471 (0.38241 0.11771 0)
# Probe 472 (0.26695 0.45544 0)
# Probe 473 (0.25066 0.45143 0)
# Probe 474 (0.33142 0.43805 0)
# Probe 475 (0.23859 0.46335 0)
# Probe 476 (0.23447 0.4471 0)
# Probe 477 (0.41144 0.11578 0)
# Probe 478 (0.44749 0.23155 0)
# Probe 479 (0.30948 0.16636 0)
# Probe 480 (0.29867 0.14609 0)
# Probe 481 (0.29133 0.1618 0)
# Probe 482 (0.27614 0.15036 0)
# Probe 483 (0.2871 0.12633 0)
# Probe 484 (0.26272 0.12749 0)
# Probe 485 (0.25202 0.14971 0)
# Probe 486 (0.23795 0.12927 0)
# Probe 487 (0.22828 0.15057 0)
# Probe 488 (0.21318 0.1318 0)
# Probe 489 (0.20442 0.1572 0)
# Probe 490 (0.18713 0.1339 0)
# Probe 491 (0.17698 0.15849 0)
# Probe 492 (0.15946 0.13578 0)
# Probe 493 (0.24974 0.10377 0)
# Probe 494 (0.19103 0.1795 0)
# Probe 495 (0.16703 0.1818 0)
# Probe 496 (0.71977 0.40136 0)
# Probe 497 (0.3849 0.20675 0)
# Probe 498 (0.39369 0.22275 0)
# Probe 499 (0.33152 0.1234 0)
# Probe 500 (0.59234 0.17448 0)
# Probe 501 (0.61383 0.14268 0)
# Probe 502 (0.283 0.45899 0)
# Probe 503 (0.42716 0.35846 0)
# Probe 504 (0.42202 0.34327 0)
# Probe 505 (0.41181 0.35435 0)
# Probe 506 (0.78682 0.49056 0)
# Probe 507 (0.83486 0.49669 0)
# Probe 508 (0.85271 0.53621 0)
# Probe 509 (0.7544 0.11177 0)
# Probe 510 (0.38201 0.4991 0)
# Probe 511 (0.40721 0.34051 0)
# Probe 512 (0.41633 0.32948 0)
# Probe 513 (0.24222 0.17091 0)
# Probe 514 (0.18223 0.20236 0)
# Probe 515 (0.15823 0.20387 0)
# Probe 516 (0.14167 0.18442 0)
# Probe 517 (0.16472 0.39332 0)
# Probe 518 (0.67402 0.2859 0)
# Probe 519 (0.13332 0.20848 0)
# Probe 520 (0.2222 0.45862 0)
# Probe 521 (0.21896 0.44211 0)
# Probe 522 (0.28627 0.50948 0)
# Probe 523 (0.34494 0.18281 0)
# Probe 524 (0.86386 0.83454 0)
# Probe 525 (0.36785 0.51412 0)
# Probe 526 (0.17001 0.22094 0)
# Probe 527 (0.73442 0.43786 0)
# Probe 528 (0.86961 0.38802 0)
# Probe 529 (0.89701 0.35315 0)
# Probe 530 (0.20363 0.19718 0)
# Probe 531 (0.81274 0.70805 0)
# Probe 532 (0.85732 0.71359 0)
# Probe 533 (0.50472 0.37396 0)
# Probe 534 (0.51093 0.39539 0)
# Probe 535 (0.68683 0.80402 0)
# Probe 536 (0.70248 0.84467 0)
# Probe 537 (0.65761 0.83838 0)
# Probe 538 (0.67543 0.87873 0)
# Probe 539 (0.62922 0.87429 0)
# Probe 540 (0.61339 0.83142 0)
# Probe 541 (0.5851 0.86687 0)
# Probe 542 (0.10924 0.42287 0)
# Probe 543 (0.69662 0.43265 0)
# Probe 544 (0.54708 0.61325 0)
# Probe 545 (0.49426 0.11253 0)
# Probe 546 (0.52715 0.10905 0)
# Probe 547 (0.10812 0.56284 0)
# Probe 548 (0.19662 0.1074 0)
# Probe 549 (0.46887 0.6606 0)
# Probe 550 (0.74669 0.85256 0)
# Probe 551 (0.84117 0.67237 0)
# Probe 552 (0.27751 0.44383 0)
# Probe 553 (0.83361 0.19892 0)
# Probe 554 (0.86196 0.16254 0)
# Probe 555 (0.88149 0.20435 0)
# Probe 556 (0.88554 0.67792 0)
# Probe 557 (0.86612 0.63873 0)
# Probe 558 (0.87909 0.50177 0)
# Probe 559 (0.07995 0.58949 0)
# Probe 560 (0.16524 0.69801 0)
# Probe 561 (0.14002 0.72751 0)
# Probe 562 (0.15215 0.76679 0)
# Probe 563 (0.11453 0.75688 0)
# Probe 564 (0.12543 0.80004 0)
# Probe 565 (0.65645 0.61666 0)
# Probe 566 (0.64385 0.58048 0)
# Probe 567 (0.66713 0.55232 0)
# Probe 568 (0.88314 0.31389 0)
# Probe 569 (0.16763 0.80804 0)
# Probe 570 (0.13986 0.84233 0)
# Probe 571 (0.18451 0.85062 0)
# Probe 572 (0.70581 0.36478 0)
# Probe 573 (0.14989 0.27154 0)
# Probe 574 (0.49284 0.41013 0)
# Probe 575 (0.65195 0.1459 0)
# Probe 576 (0.14818 0.24818 0)
# Probe 577 (0.49824 0.3524 0)
# Probe 578 (0.6358 0.11006 0)
# Probe 579 (0.59716 0.10514 0)
# Probe 580 (0.32379 0.18497 0)
# Probe 581 (0.29196 0.44611 0)
# Probe 582 (0.24702 0.43649 0)
# Probe 583 (0.81613 0.45483 0)
# Probe 584 (0.30875 0.47579 0)
# Probe 585 (0.14705 0.29173 0)
# Probe 586 (0.65086 0.91658 0)
# Probe 587 (0.83417 0.87202 0)
# Probe 588 (0.22444 0.47599 0)
# Probe 589 (0.37734 0.22239 0)
# Probe 590 (0.36594 0.20771 0)
# Probe 591 (0.31447 0.43426 0)
# Probe 592 (0.32636 0.42541 0)
# Probe 593 (0.34202 0.42568 0)
# Probe 594 (0.31464 0.49577 0)
# Probe 595 (0.33192 0.50097 0)
# Probe 596 (0.41123 0.22517 0)
# Probe 597 (0.40052 0.24154 0)
# Probe 598 (0.06577 0.365 0)
# Probe 599 (0.84379 0.12117 0)
# Probe 600 (0.88744 0.12653 0)
# Probe 601 (0.8799 0.8782 0)
# Probe 602 (0.63045 0.54639 0)
# Probe 603 (0.60636 0.57453 0)
# Probe 604 (0.65614 0.51718 0)
# Probe 605 (0.52292 0.17265 0)
# Probe 606 (0.71348 0.11106 0)
# Probe 607 (0.20535 0.45408 0)
# Probe 608 (0.2121 0.17962 0)
# Probe 609 (0.61935 0.07364 0)
# Probe 610 (0.15726 0.88505 0)
# Probe 611 (0.11752 0.88207 0)
# Probe 612 (0.90372 0.71949 0)
# Probe 613 (0.19066 0.67038 0)
# Probe 614 (0.5276 0.3785 0)
# Probe 615 (0.53469 0.40478 0)
# Probe 616 (0.12618 0.6918 0)
# Probe 617 (0.16289 0.2593 0)
# Probe 618 (0.41851 0.24188 0)
# Probe 619 (0.40951 0.25655 0)
# Probe 620 (0.42528 0.25795 0)
# Probe 621 (0.41535 0.27084 0)
# Probe 622 (0.40138 0.26903 0)
# Probe 623 (0.40577 0.28257 0)
# Probe 624 (0.42063 0.28511 0)
# Probe 625 (0.40948 0.29505 0)
# Probe 626 (0.30535 0.18445 0)
# Probe 627 (0.28186 0.18309 0)
# Probe 628 (0.40169 0.32859 0)
# Probe 629 (0.38505 0.23622 0)
# Probe 630 (0.46183 0.11291 0)
# Probe 631 (0.47815 0.081 0)
# Probe 632 (0.22579 0.58659 0)
# Probe 633 (0.23495 0.61369 0)
# Probe 634 (0.26321 0.6187 0)
# Probe 635 (0.24459 0.64213 0)
# Probe 636 (0.8946 0.54146 0)
# Probe 637 (0.73927 0.07362 0)
# Probe 638 (0.39738 0.0896 0)
# Probe 639 (0.36461 0.09177 0)
# Probe 640 (0.70908 0.46676 0)
# Probe 641 (0.67209 0.46178 0)
# Probe 642 (0.40817 0.31706 0)
# Probe 643 (0.20175 0.89069 0)
# Probe 644 (0.23004 0.85766 0)
# Probe 645 (0.24744 0.89709 0)
# Probe 646 (0.27602 0.8646 0)
# Probe 647 (0.29224 0.90616 0)
# Probe 648 (0.3208 0.8723 0)
# Probe 649 (0.3897 0.25082 0)
# Probe 650 (0.57203 0.82545 0)
# Probe 651 (0.54389 0.85881 0)
# Probe 652 (0.93094 0.67979 0)
# Probe 653 (0.37856 0.06269 0)
# Probe 654 (0.39875 0.35177 0)
# Probe 655 (0.40211 0.36433 0)
# Probe 656 (0.38968 0.36113 0)
# Probe 657 (0.39152 0.37139 0)
# Probe 658 (0.33594 0.19532 0)
# Probe 659 (0.89029 0.79727 0)
# Probe 660 (0.42522 0.29915 0)
# Probe 661 (0.55672 0.89814 0)
# Probe 662 (0.51391 0.88954 0)
# Probe 663 (0.21984 0.19615 0)
# Probe 664 (0.21322 0.21049 0)
# Probe 665 (0.19783 0.21213 0)
# Probe 666 (0.1335 0.3075 0)
# Probe 667 (0.13776 0.32986 0)
# Probe 668 (0.14999 0.3178 0)
# Probe 669 (0.15478 0.33578 0)
# Probe 670 (0.58094 0.06819 0)
# Probe 671 (0.11372 0.1885 0)
# Probe 672 (0.1246 0.16101 0)
# Probe 673 (0.09406 0.16458 0)
# Probe 674 (0.10615 0.12734 0)
# Probe 675 (0.06968 0.14137 0)
# Probe 676 (0.36283 0.18871 0)
# Probe 677 (0.87062 0.07884 0)
# Probe 678 (0.17292 0.42265 0)
# Probe 679 (0.1863 0.40298 0)
# Probe 680 (0.18939 0.42919 0)
# Probe 681 (0.105 0.24385 0)
# Probe 682 (0.39349 0.33855 0)
# Probe 683 (0.43731 0.21091 0)
# Probe 684 (0.86925 0.57631 0)
# Probe 685 (0.25994 0.82025 0)
# Probe 686 (0.26138 0.16837 0)
# Probe 687 (0.25482 0.18438 0)
# Probe 688 (0.91567 0.58817 0)
# Probe 689 (0.50405 0.84624 0)
# Probe 690 (0.47322 0.88312 0)
# Probe 691 (0.27556 0.6458 0)
# Probe 692 (0.29098 0.62292 0)
# Probe 693 (0.30619 0.65104 0)
# Probe 694 (0.52336 0.93146 0)
# Probe 695 (0.0411 0.47609 0)
# Probe 696 (0.07526 0.49527 0)
# Probe 697 (0.07306 0.45655 0)
# Probe 698 (0.59897 0.79117 0)
# Probe 699 (0.53152 0.31427 0)
# Probe 700 (0.33224 0.916 0)
# Probe 701 (0.36945 0.8845 0)
# Probe 702 (0.26251 0.43829 0)
# Probe 703 (0.27399 0.43027 0)
# Probe 704 (0.28627 0.43245 0)
# Probe 705 (0.50085 0.30903 0)
# Probe 706 (0.38903 0.52435 0)
# Probe 707 (0.40442 0.50493 0)
# Probe 708 (0.4565 0.2552 0)
# Probe 709 (0.03419 0.32065 0)
# Probe 710 (0.4254 0.31532 0)
# Probe 711 (0.36755 0.53757 0)
# Probe 712 (0.74841 0.47418 0)
# Probe 713 (0.29937 0.43518 0)
# Probe 714 (0.3925 0.27819 0)
# Probe 715 (0.42957 0.37676 0)
# Probe 716 (0.23103 0.67439 0)
# Probe 717 (0.40612 0.40436 0)
# Probe 718 (0.3916 0.41568 0)
# Probe 719 (0.37515 0.41453 0)
# Probe 720 (0.36505 0.42404 0)
# Probe 721 (0.36204 0.4103 0)
# Probe 722 (0.36943 0.40177 0)
# Probe 723 (0.36553 0.44146 0)
# Probe 724 (0.35749 0.39883 0)
# Probe 725 (0.39007 0.39668 0)
# Probe 726 (0.34963 0.40635 0)
# Probe 727 (0.40471 0.38886 0)
# Probe 728 (0.35293 0.41833 0)
# Probe 729 (0.15987 0.37586 0)
# Probe 730 (0.17563 0.38109 0)
# Probe 731 (0.15851 0.3565 0)
# Probe 732 (0.34721 0.44079 0)
# Probe 733 (0.29838 0.46078 0)
# Probe 734 (0.21064 0.63723 0)
# Probe 735 (0.68698 0.49709 0)
# Probe 736 (0.23256 0.43013 0)
# Probe 737 (0.21624 0.42592 0)
# Probe 738 (0.22673 0.41661 0)
# Probe 739 (0.3671 0.37489 0)
# Probe 740 (0.37106 0.38425 0)
# Probe 741 (0.3799 0.37625 0)
# Probe 742 (0.32644 0.40792 0)
# Probe 743 (0.37946 0.35667 0)
# Probe 744 (0.35065 0.52882 0)
# Probe 745 (0.31622 0.41177 0)
# Probe 746 (0.51466 0.47933 0)
# Probe 747 (0.48711 0.47604 0)
# Probe 748 (0.46994 0.49637 0)
# Probe 749 (0.46169 0.47295 0)
# Probe 750 (0.44555 0.49189 0)
# Probe 751 (0.45303 0.5156 0)
# Probe 752 (0.47728 0.45383 0)
# Probe 753 (0.38842 0.30485 0)
# Probe 754 (0.38867 0.32704 0)
# Probe 755 (0.37676 0.70726 0)
# Probe 756 (0.36572 0.67377 0)
# Probe 757 (0.39972 0.68038 0)
# Probe 758 (0.38718 0.64671 0)
# Probe 759 (0.35996 0.63866 0)
# Probe 760 (0.43943 0.68155 0)
# Probe 761 (0.17765 0.929 0)
# Probe 762 (0.43974 0.46759 0)
# Probe 763 (0.33348 0.41553 0)
# Probe 764 (0.5037 0.45533 0)
# Probe 765 (0.5207 0.43312 0)
# Probe 766 (0.54925 0.43282 0)
# Probe 767 (0.56727 0.40588 0)
# Probe 768 (0.30402 0.68906 0)
# Probe 769 (0.27752 0.03959 0)
# Probe 770 (0.29764 0.07767 0)
# Probe 771 (0.22951 0.04412 0)
# Probe 772 (0.3825 0.38657 0)
# Probe 773 (0.12768 0.04272 0)
# Probe 774 (0.15093 0.08019 0)
# Probe 775 (0.11336 0.0846 0)
# Probe 776 (0.42842 0.51066 0)
# Probe 777 (0.43691 0.53259 0)
# Probe 778 (0.91955 0.40057 0)
# Probe 779 (0.88203 0.42606 0)
# Probe 780 (0.94516 0.35567 0)
# Probe 781 (0.38186 0.27395 0)
# Probe 782 (0.37276 0.25452 0)
# Probe 783 (0.18719 0.46278 0)
# Probe 784 (0.30078 0.5293 0)
# Probe 785 (0.25354 0.41526 0)
# Probe 786 (0.25631 0.42595 0)
# Probe 787 (0.35105 0.19941 0)
# Probe 788 (0.68409 0.39649 0)
# Probe 789 (0.20691 0.39047 0)
# Probe 790 (0.19298 0.37455 0)
# Probe 791 (0.29641 0.41716 0)
# Probe 792 (0.04027 0.57417 0)
# Probe 793 (0.04888 0.62228 0)
# Probe 794 (0.07635 0.65533 0)
# Probe 795 (0.51377 0.33329 0)
# Probe 796 (0.34476 0.22273 0)
# Probe 797 (0.35484 0.21823 0)
# Probe 798 (0.3263 0.2123 0)
# Probe 799 (0.78345 0.07584 0)
# Probe 800 (0.36043 0.23711 0)
# Probe 801 (0.42508 0.95806 0)
# Probe 802 (0.40041 0.91761 0)
# Probe 803 (0.72907 0.33254 0)
# Probe 804 (0.69014 0.32708 0)
# Probe 805 (0.9602 0.47663 0)
# Probe 806 (0.24332 0.20758 0)
# Probe 807 (0.21561 0.39824 0)
# Probe 808 (0.20525 0.40283 0)
# Probe 809 (0.27468 0.20175 0)
# Probe 810 (0.26727 0.19258 0)
# Probe 811 (0.25366 0.20465 0)
# Probe 812 (0.2478 0.19609 0)
# Probe 813 (0.43632 0.08336 0)
# Probe 814 (0.19925 0.23644 0)
# Probe 815 (0.45158 0.72023 0)
# Probe 816 (0.18208 0.26356 0)
# Probe 817 (0.19242 0.24483 0)
# Probe 818 (0.18039 0.24344 0)
# Probe 819 (0.16428 0.24107 0)
# Probe 820 (0.1508 0.22628 0)
# Probe 821 (0.12838 0.23338 0)
# Probe 822 (0.67165 0.65352 0)
# Probe 823 (0.63133 0.65005 0)
# Probe 824 (0.61188 0.61462 0)
# Probe 825 (0.57924 0.59688 0)
# Probe 826 (0.41529 0.36817 0)
# Probe 827 (0.71321 0.29415 0)
# Probe 828 (0.65055 0.31709 0)
# Probe 829 (0.63615 0.27734 0)
# Probe 830 (0.04107 0.72296 0)
# Probe 831 (0.17766 0.34665 0)
# Probe 832 (0.18694 0.36562 0)
# Probe 833 (0.17394 0.36648 0)
# Probe 834 (0.55623 0.78334 0)
# Probe 835 (0.17779 0.27353 0)
# Probe 836 (0.16655 0.2745 0)
# Probe 837 (0.17183 0.29414 0)
# Probe 838 (0.17141 0.31532 0)
# Probe 839 (0.17464 0.33637 0)
# Probe 840 (0.398 0.3109 0)
# Probe 841 (0.08783 0.5293 0)
# Probe 842 (0.11664 0.53113 0)
# Probe 843 (0.7054 0.55726 0)
# Probe 844 (0.04111 0.77081 0)
# Probe 845 (0.30085 0.95064 0)
# Probe 846 (0.41941 0.6529 0)
# Probe 847 (0.07044 0.39595 0)
# Probe 848 (0.08382 0.69424 0)
# Probe 849 (0.30633 0.20487 0)
# Probe 850 (0.31323 0.19642 0)
# Probe 851 (0.28539 0.20172 0)
# Probe 852 (0.07733 0.0483 0)
# Probe 853 (0.59026 0.74958 0)
# Probe 854 (0.19483 0.39474 0)
# Probe 855 (0.46168 0.53991 0)
# Probe 856 (0.79616 0.66909 0)
# Probe 857 (0.22547 0.4953 0)
# Probe 858 (0.55635 0.37342 0)
# Probe 859 (0.35137 0.84007 0)
# Probe 860 (0.64352 0.79723 0)
# Probe 861 (0.95685 0.22525 0)
# Probe 862 (0.90728 0.2443 0)
# Probe 863 (0.3972 0.29982 0)
# Probe 864 (0.61834 0.51544 0)
# Probe 865 (0.77505 0.95673 0)
# Probe 866 (0.74787 0.91768 0)
# Probe 867 (0.79825 0.90919 0)
# Probe 868 (0.95444 0.7231 0)
# Probe 869 (0.67554 0.95771 0)
# Probe 870 (0.80026 0.41383 0)
# Probe 871 (0.84154 0.42091 0)
# Probe 872 (0.04375 0.8704 0)
# Probe 873 (0.95825 0.12111 0)
# Probe 874 (0.95671 0.82501 0)
# Probe 875 (0.87522 0.95845 0)
# Probe 876 (0.27426 0.52881 0)
# Probe 877 (0.57225 0.20493 0)
# Probe 878 (0.59961 0.91558 0)
# Probe 879 (0.6228 0.95695 0)
# Probe 880 (0.41973 0.48388 0)
# Probe 881 (0.2036 0.07235 0)
# Probe 882 (0.24571 0.42304 0)
# Probe 883 (0.31907 0.51489 0)
# Probe 884 (0.27429 0.41902 0)
# Probe 885 (0.28959 0.4751 0)
# Probe 886 (0.76918 0.70348 0)
# Probe 887 (0.46787 0.03918 0)
# Probe 888 (0.57713 0.14024 0)
# Probe 889 (0.21534 0.41116 0)
# Probe 890 (0.44693 0.91834 0)
# Probe 891 (0.42551 0.87759 0)
# Probe 892 (0.39365 0.84625 0)
# Probe 893 (0.90687 0.63684 0)
# Probe 894 (0.77423 0.44637 0)
# Probe 895 (0.33401 0.658 0)
# Probe 896 (0.47656 0.69413 0)
# Probe 897 (0.70632 0.18351 0)
# Probe 898 (0.15122 0.66552 0)
# Probe 899 (0.55442 0.2351 0)
# Probe 900 (0.91393 0.84171 0)
# Probe 901 (0.90452 0.16856 0)
# Probe 902 (0.96057 0.57359 0)
# Probe 903 (0.77422 0.81923 0)
# Probe 904 (0.08985 0.84306 0)
# Probe 905 (0.87405 0.75526 0)
# Probe 906 (0.49164 0.32896 0)
# Probe 907 (0.1611 0.29888 0)
# Probe 908 (0.30763 0.83241 0)
# Probe 909 (0.66159 0.42328 0)
# Probe 910 (0.55766 0.64619 0)
# Probe 911 (0.82707 0.56752 0)
# Probe 912 (0.79893 0.11706 0)
# Probe 913 (0.34629 0.2123 0)
# Probe 914 (0.85213 0.91575 0)
# Probe 915 (0.45415 0.45122 0)
# Probe 916 (0.36378 0.22502 0)
# Probe 917 (0.37187 0.23511 0)
# Probe 918 (0.84068 0.30793 0)
# Probe 919 (0.80681 0.23181 0)
# Probe 920 (0.34532 0.39686 0)
# Probe 921 (0.14373 0.34739 0)
# Probe 922 (0.92567 0.31847 0)
# Probe 923 (0.21184 0.81679 0)
# Probe 924 (0.41422 0.81317 0)
# Probe 925 (0.67274 0.76388 0)
# Probe 926 (0.43092 0.27321 0)
# Probe 927 (0.27768 0.59513 0)
# Probe 928 (0.66764 0.18128 0)
# Probe 929 (0.69909 0.91802 0)
# Probe 930 (0.52916 0.58541 0)
# Probe 931 (0.52026 0.35602 0)
# Probe 932 (0.56565 0.53796 0)
# Probe 933 (0.59671 0.54272 0)
# Probe 934 (0.33852 0.8007 0)
# Probe 935 (0.21829 0.56197 0)
# Probe 936 (0.95867 0.07604 0)
# Probe 937 (0.354 0.60863 0)
# Probe 938 (0.43257 0.33041 0)
# Probe 939 (0.86139 0.46148 0)
# Probe 940 (0.46164 0.6289 0)
# Probe 941 (0.07741 0.96051 0)
# Probe 942 (0.95216 0.9212 0)
# Probe 943 (0.5571 0.17384 0)
# Probe 944 (0.8552 0.23658 0)
# Probe 945 (0.19254 0.77459 0)
# Probe 946 (0.77922 0.63139 0)
# Probe 947 (0.21544 0.22295 0)
# Probe 948 (0.20205 0.41642 0)
# Probe 949 (0.3046 0.59993 0)
# Probe 950 (0.7905 0.86254 0)
# Probe 951 (0.26603 0.07624 0)
# Probe 952 (0.26741 0.77911 0)
# Probe 953 (0.47609 0.35204 0)
# Probe 954 (0.31506 0.42127 0)
# Probe 955 (0.47928 0.52204 0)
# Probe 956 (0.03867 0.38489 0)
# Probe 957 (0.23447 0.40866 0)
# Probe 958 (0.40615 0.62085 0)
# Probe 959 (0.16682 0.34415 0)
# Probe 960 (0.34515 0.48819 0)
# Probe 961 (0.10788 0.21645 0)
# Probe 962 (0.41982 0.45771 0)
# Probe 963 (0.38902 0.26436 0)
# Probe 964 (0.47443 0.40401 0)
# Probe 965 (0.53421 0.20514 0)
# Probe 966 (0.22416 0.2169 0)
# Probe 967 (0.42266 0.14195 0)
# Probe 968 (0.39399 0.48427 0)
# Probe 969 (0.4128 0.52714 0)
# Probe 970 (0.44737 0.43176 0)
# Probe 971 (0.0825 0.79009 0)