# Probe 0 (0 0 0)
# Probe 1 (1 0 0)
# Probe 2 (1 1 0)
# Probe 3 (0 1 0)
# Probe 4 (0.55 0.79 0)
# Probe 5 (0.45 0.69 0)
# Probe 6 (0.35 0.79 0)
# Probe 7 (0.45 0.89 0)
# Probe 8 (0.05 0 0)
# Probe 9 (0.1 0 0)
# Probe 10 (0.15 0 0)
# Probe 11 (0.2 0 0)
# Probe 12 (0.25 0 0)
# Probe 13 (0.3 0 0)
# Probe 14 (0.35 0 0)
# Probe 15 (0.4 0 0)
# Probe 16 (0.45 0 0)
# Probe 17 (0.5 0 0)
# Probe 18 (0.55 0 0)
# Probe 19 (0.6 0 0)
# Probe 20 (0.65 0 0)
# Probe 21 (0.7 0 0)
# Probe 22 (0.75 0 0)
# Probe 23 (0.8 0 0)
# Probe 24 (0.85 0 0)
# Probe 25 (0.9 0 0)
# Probe 26 (0.95 0 0)
# Probe 27 (1 0.05 0)
# Probe 28 (1 0.1 0)
# Probe 29 (1 0.15 0)
# Probe 30 (1 0.2 0)
# Probe 31 (1 0.25 0)
# Probe 32 (1 0.3 0)
# Probe 33 (1 0.35 0)
# Probe 34 (1 0.4 0)
# Probe 35 (1 0.45 0)
# Probe 36 (1 0.5 0)
# Probe 37 (1 0.55 0)
# Probe 38 (1 0.6 0)
# Probe 39 (1 0.65 0)
# Probe 40 (1 0.7 0)
# Probe 41 (1 0.75 0)
# Probe 42 (1 0.8 0)
# Probe 43 (1 0.85 0)
# Probe 44 (1 0.9 0)
# Probe 45 (1 0.95 0)
# Probe 46 (0.95 1 0)
# Probe 47 (0.9 1 0)
# Probe 48 (0.85 1 0)
# Probe 49 (0.8 1 0)
# Probe 50 (0.75 1 0)
# Probe 51 (0.7 1 0)
# Probe 52 (0.65 1 0)
# Probe 53 (0.6 1 0)
# Probe 54 (0.55 1 0)
# Probe 55 (0.5 1 0)
# Probe 56 (0.45 1 0)
# Probe 57 (0.4 1 0)
# Probe 58 (0.35 1 0)
# Probe 59 (0.3 1 0)
# Probe 60 (0.25 1 0)
# Probe 61 (0.2 1 0)
# Probe 62 (0.15 1 0)
# Probe 63 (0.1 1 0)
# Probe 64 (0.05 1 0)
# Probe 65 (0 0.95 0)
# Probe 66 (0 0.9 0)
# Probe 67 (0 0.85 0)
# Probe 68 (0 0.8 0)
# Probe 69 (0 0.75 0)
# Probe 70 (0 0.7 0)
# Probe 71 (0 0.65 0)
# Probe 72 (0 0.6 0)
# Probe 73 (0 0.55 0)
# Probe 74 (0 0.5 0)
# Probe 75 (0 0.45 0)
# Probe 76 (0 0.4 0)
# Probe 77 (0 0.35 0)
# Probe 78 (0 0.3 0)
# Probe 79 (0 0.25 0)
# Probe 80 (0 0.2 0)
# Probe 81 (0 0.15 0)
# Probe 82 (0 0.1 0)
# Probe 83 (0 0.05 0)
# Probe 84 (0.54952 0.7802 0)
# Probe 85 (0.54808 0.77049 0)
# Probe 86 (0.54569 0.76097 0)
# Probe 87 (0.54239 0.75173 0)
# Probe 88 (0.53819 0.74286 0)
# Probe 89 (0.53315 0.73444 0)
# Probe 90 (0.5273 0.72656 0)
# Probe 91 (0.52071 0.71929 0)
# Probe 92 (0.51344 0.7127 0)
# Probe 93 (0.50556 0.70685 0)
# Probe 94 (0.49714 0.70181 0)
# Probe 95 (0.48827 0.69761 0)
# Probe 96 (0.47903 0.69431 0)
# Probe 97 (0.46951 0.69192 0)
# Probe 98 (0.4598 0.69048 0)
# Probe 99 (0.4402 0.69048 0)
# Probe 100 (0.43049 0.69192 0)
# Probe 101 (0.42097 0.69431 0)
# Probe 102 (0.41173 0.69761 0)
# Probe 103 (0.40286 0.70181 0)
# Probe 104 (0.39444 0.70685 0)
# Probe 105 (0.38656 0.7127 0)
# Probe 106 (0.37929 0.71929 0)
# Probe 107 (0.3727 0.72656 0)
# Probe 108 (0.36685 0.73444 0)
# Probe 109 (0.36181 0.74286 0)
# Probe 110 (0.35761 0.75173 0)
# Probe 111 (0.35431 0.76097 0)
# Probe 112 (0.35192 0.77049 0)
# Probe 113 (0.35048 0.7802 0)
# Probe 114 (0.35048 0.7998 0)
# Probe 115 (0.35192 0.80951 0)
# Probe 116 (0.35431 0.81903 0)
# Probe 117 (0.35761 0.82827 0)
# Probe 118 (0.36181 0.83714 0)
# Probe 119 (0.36685 0.84556 0)
# Probe 120 (0.3727 0.85344 0)
# Probe 121 (0.37929 0.86071 0)
# Probe 122 (0.38656 0.8673 0)
# Probe 123 (0.39444 0.87315 0)
# Probe 124 (0.40286 0.87819 0)
# Probe 125 (0.41173 0.88239 0)
# Probe 126 (0.42097 0.88569 0)
# Probe 127 (0.43049 0.88808 0)
# Probe 128 (0.4402 0.88952 0)
# Probe 129 (0.4598 0.88952 0)
# Probe 130 (0.46951 0.88808 0)
# Probe 131 (0.47903 0.88569 0)
# Probe 132 (0.48827 0.88239 0)
# Probe 133 (0.49714 0.87819 0)
# Probe 134 (0.50556 0.87315 0)
# Probe 135 (0.51344 0.8673 0)
# Probe 136 (0.52071 0.86071 0)
# Probe 137 (0.5273 0.85344 0)
# Probe 138 (0.53315 0.84556 0)
# Probe 139 (0.53819 0.83714 0)
# Probe 140 (0.54239 0.82827 0)
# Probe 141 (0.54569 0.81903 0)
# Probe 142 (0.54808 0.80951 0)
# Probe 143 (0.54952 0.7998 0)
# Probe 144 (0.62611 0.04264 0)
# Probe 145 (0.37617 0.04247 0)
# Probe 146 (0.04406 0.38122 0)
# Probe 147 (0.95527 0.41986 0)
# Probe 148 (0.95416 0.57717 0)
# Probe 149 (0.03453 0.5243 0)
# Probe 150 (0.95875 0.72801 0)
# Probe 151 (0.95966 0.27692 0)
# Probe 152 (0.03688 0.66826 0)
# Probe 153 (0.72421 0.95947 0)
# Probe 154 (0.54254 0.84662 0)
# Probe 155 (0.04421 0.22446 0)
# Probe 156 (0.77567 0.04463 0)
# Probe 157 (0.22782 0.95856 0)
# Probe 158 (0.35664 0.84574 0)
# Probe 159 (0.2275 0.04447 0)
# Probe 160 (0.36899 0.86328 0)
# Probe 161 (0.53122 0.86222 0)
# Probe 162 (0.3853 0.87723 0)
# Probe 163 (0.51477 0.87787 0)
# Probe 164 (0.40365 0.88755 0)
# Probe 165 (0.49647 0.8886 0)
# Probe 166 (0.42367 0.89513 0)
# Probe 167 (0.4436 0.89974 0)
# Probe 168 (0.47514 0.89337 0)
# Probe 169 (0.04561 0.82175 0)
# Probe 170 (0.82196 0.95123 0)
# Probe 171 (0.95221 0.82735 0)
# Probe 172 (0.47471 0.04321 0)
# Probe 173 (0.62805 0.95423 0)
# Probe 174 (0.94809 0.17584 0)
# Probe 175 (0.04479 0.13218 0)
# Probe 176 (0.11836 0.96392 0)
# Probe 177 (0.87459 0.04052 0)
# Probe 178 (0.32491 0.96156 0)
# Probe 179 (0.1275 0.04549 0)
# Probe 180 (0.52669 0.95598 0)
# Probe 181 (0.92628 0.95501 0)
# Probe 182 (0.42937 0.95605 0)
# Probe 183 (0.03902 0.92773 0)
# Probe 184 (0.9623 0.07558 0)
# Probe 185 (0.46753 0.95617 0)
# Probe 186 (0.45415 0.93261 0)
# Probe 187 (0.47882 0.93003 0)
# Probe 188 (0.41618 0.92455 0)
# Probe 189 (0.39658 0.94682 0)
# Probe 190 (0.39036 0.91817 0)
# Probe 191 (0.36973 0.93774 0)
# Probe 192 (0.36591 0.91222 0)
# Probe 193 (0.56594 0.95963 0)
# Probe 194 (0.59825 0.92251 0)
# Probe 195 (0.54951 0.93337 0)
# Probe 196 (0.51425 0.92922 0)
# Probe 197 (0.53013 0.90003 0)
# Probe 198 (0.26771 0.95906 0)
# Probe 199 (0.24733 0.9225 0)
# Probe 200 (0.21064 0.91977 0)
# Probe 201 (0.2323 0.89003 0)
# Probe 202 (0.34478 0.81604 0)
# Probe 203 (0.26677 0.89075 0)
# Probe 204 (0.25026 0.86262 0)
# Probe 205 (0.21924 0.85984 0)
# Probe 206 (0.23733 0.83521 0)
# Probe 207 (0.34075 0.78259 0)
# Probe 208 (0.20691 0.8315 0)
# Probe 209 (0.22887 0.80582 0)
# Probe 210 (0.1951 0.80316 0)
# Probe 211 (0.21384 0.77968 0)
# Probe 212 (0.24188 0.77933 0)
# Probe 213 (0.23082 0.75588 0)
# Probe 214 (0.34819 0.75305 0)
# Probe 215 (0.20286 0.75279 0)
# Probe 216 (0.22059 0.73109 0)
# Probe 217 (0.24706 0.73484 0)
# Probe 218 (0.23781 0.71152 0)
# Probe 219 (0.26497 0.71487 0)
# Probe 220 (0.25437 0.69278 0)
# Probe 221 (0.36995 0.71726 0)
# Probe 222 (0.23038 0.6879 0)
# Probe 223 (0.2474 0.66914 0)
# Probe 224 (0.22276 0.66406 0)
# Probe 225 (0.2399 0.64546 0)
# Probe 226 (0.26433 0.65076 0)
# Probe 227 (0.2573 0.62749 0)
# Probe 228 (0.2808 0.6332 0)
# Probe 229 (0.27407 0.60987 0)
# Probe 230 (0.29733 0.61559 0)
# Probe 231 (0.29043 0.59342 0)
# Probe 232 (0.31387 0.5988 0)
# Probe 233 (0.30444 0.57339 0)
# Probe 234 (0.33003 0.58105 0)
# Probe 235 (0.32396 0.55752 0)
# Probe 236 (0.34698 0.56322 0)
# Probe 237 (0.34057 0.53986 0)
# Probe 238 (0.36445 0.54468 0)
# Probe 239 (0.35752 0.52143 0)
# Probe 240 (0.38253 0.52648 0)
# Probe 241 (0.37501 0.50275 0)
# Probe 242 (0.40029 0.5091 0)
# Probe 243 (0.39317 0.4831 0)
# Probe 244 (0.41979 0.48853 0)
# Probe 245 (0.41225 0.46232 0)
# Probe 246 (0.4407 0.4685 0)
# Probe 247 (0.44495 0.68157 0)
# Probe 248 (0.38506 0.45607 0)
# Probe 249 (0.43233 0.44076 0)
# Probe 250 (0.46141 0.44804 0)
# Probe 251 (0.46952 0.47706 0)
# Probe 252 (0.49068 0.45567 0)
# Probe 253 (0.49906 0.48391 0)
# Probe 254 (0.51998 0.4637 0)
# Probe 255 (0.52803 0.49247 0)
# Probe 256 (0.48674 0.68854 0)
# Probe 257 (0.54962 0.47129 0)
# Probe 258 (0.55662 0.50549 0)
# Probe 259 (0.5134 0.43376 0)
# Probe 260 (0.57935 0.4792 0)
# Probe 261 (0.58795 0.50962 0)
# Probe 262 (0.31656 0.53386 0)
# Probe 263 (0.60976 0.48668 0)
# Probe 264 (0.61773 0.51699 0)
# Probe 265 (0.41438 0.68701 0)
# Probe 266 (0.60159 0.45558 0)
# Probe 267 (0.26509 0.58484 0)
# Probe 268 (0.63233 0.46319 0)
# Probe 269 (0.62474 0.43129 0)
# Probe 270 (0.59675 0.53858 0)
# Probe 271 (0.51501 0.70249 0)
# Probe 272 (0.62554 0.54641 0)
# Probe 273 (0.40795 0.53434 0)
# Probe 274 (0.65785 0.43831 0)
# Probe 275 (0.64916 0.40556 0)
# Probe 276 (0.60502 0.56755 0)
# Probe 277 (0.63335 0.57582 0)
# Probe 278 (0.65471 0.55428 0)
# Probe 279 (0.66115 0.5838 0)
# Probe 280 (0.64078 0.6045 0)
# Probe 281 (0.53784 0.72517 0)
# Probe 282 (0.66757 0.61254 0)
# Probe 283 (0.55825 0.78468 0)
# Probe 284 (0.55135 0.75308 0)
# Probe 285 (0.68299 0.56205 0)
# Probe 286 (0.64737 0.63208 0)
# Probe 287 (0.67395 0.63993 0)
# Probe 288 (0.65412 0.65854 0)
# Probe 289 (0.6802 0.66678 0)
# Probe 290 (0.70099 0.64796 0)
# Probe 291 (0.70683 0.67582 0)
# Probe 292 (0.68566 0.69453 0)
# Probe 293 (0.7121 0.70388 0)
# Probe 294 (0.69045 0.7229 0)
# Probe 295 (0.71849 0.73279 0)
# Probe 296 (0.68464 0.41376 0)
# Probe 297 (0.67474 0.37919 0)
# Probe 298 (0.63879 0.37035 0)
# Probe 299 (0.66476 0.34296 0)
# Probe 300 (0.62701 0.33368 0)
# Probe 301 (0.72918 0.6566 0)
# Probe 302 (0.69598 0.75253 0)
# Probe 303 (0.6543 0.30581 0)
# Probe 304 (0.61549 0.2961 0)
# Probe 305 (0.35259 0.58629 0)
# Probe 306 (0.71116 0.38869 0)
# Probe 307 (0.46597 0.68302 0)
# Probe 308 (0.39448 0.69694 0)
# Probe 309 (0.35704 0.73428 0)
# Probe 310 (0.62933 0.65081 0)
# Probe 311 (0.55721 0.8059 0)
# Probe 312 (0.21449 0.63964 0)
# Probe 313 (0.72513 0.76438 0)
# Probe 314 (0.50843 0.51171 0)
# Probe 315 (0.3195 0.62192 0)
# Probe 316 (0.72105 0.4244 0)
# Probe 317 (0.69676 0.78921 0)
# Probe 318 (0.75236 0.73731 0)
# Probe 319 (0.28534 0.65485 0)
# Probe 320 (0.64361 0.26719 0)
# Probe 321 (0.68322 0.27743 0)
# Probe 322 (0.60445 0.25769 0)
# Probe 323 (0.57641 0.28671 0)
# Probe 324 (0.56514 0.24832 0)
# Probe 325 (0.53848 0.27851 0)
# Probe 326 (0.7484 0.39874 0)
# Probe 327 (0.75776 0.43695 0)
# Probe 328 (0.52628 0.23929 0)
# Probe 329 (0.5009 0.26987 0)
# Probe 330 (0.75695 0.77518 0)
# Probe 331 (0.66948 0.74125 0)
# Probe 332 (0.48761 0.23015 0)
# Probe 333 (0.46119 0.26631 0)
# Probe 334 (0.67219 0.23733 0)
# Probe 335 (0.71329 0.24814 0)
# Probe 336 (0.44808 0.22332 0)
# Probe 337 (0.42053 0.25161 0)
# Probe 338 (0.27131 0.73686 0)
# Probe 339 (0.28636 0.72194 0)
# Probe 340 (0.19628 0.6579 0)
# Probe 341 (0.18624 0.63293 0)
# Probe 342 (0.40879 0.21113 0)
# Probe 343 (0.381 0.24115 0)
# Probe 344 (0.39075 0.27991 0)
# Probe 345 (0.35243 0.27116 0)
# Probe 346 (0.34332 0.23391 0)
# Probe 347 (0.31474 0.26395 0)
# Probe 348 (0.32521 0.3017 0)
# Probe 349 (0.28537 0.29278 0)
# Probe 350 (0.27324 0.24942 0)
# Probe 351 (0.29794 0.33117 0)
# Probe 352 (0.25836 0.32306 0)
# Probe 353 (0.27078 0.3607 0)
# Probe 354 (0.23319 0.35382 0)
# Probe 355 (0.24475 0.39 0)
# Probe 356 (0.78463 0.75157 0)
# Probe 357 (0.78992 0.78625 0)
# Probe 358 (0.55296 0.20904 0)
# Probe 359 (0.45318 0.4186 0)
# Probe 360 (0.78661 0.40931 0)
# Probe 361 (0.79626 0.44834 0)
# Probe 362 (0.42265 0.41126 0)
# Probe 363 (0.2183 0.32274 0)
# Probe 364 (0.76249 0.8116 0)
# Probe 365 (0.2074 0.38328 0)
# Probe 366 (0.21866 0.41881 0)
# Probe 367 (0.34858 0.49666 0)
# Probe 368 (0.70166 0.20648 0)
# Probe 369 (0.7438 0.21724 0)
# Probe 370 (0.75529 0.25973 0)
# Probe 371 (0.78654 0.22843 0)
# Probe 372 (0.79859 0.26966 0)
# Probe 373 (0.57745 0.55962 0)
# Probe 374 (0.58512 0.5866 0)
# Probe 375 (0.55958 0.57934 0)
# Probe 376 (0.56621 0.60365 0)
# Probe 377 (0.54355 0.59731 0)
# Probe 378 (0.54965 0.61875 0)
# Probe 379 (0.5293 0.61359 0)
# Probe 380 (0.53376 0.63199 0)
# Probe 381 (0.51562 0.627 0)
# Probe 382 (0.51011 0.60931 0)
# Probe 383 (0.4973 0.62261 0)
# Probe 384 (0.49148 0.60547 0)
# Probe 385 (0.47969 0.61914 0)
# Probe 386 (0.47309 0.60182 0)
# Probe 387 (0.46122 0.61752 0)
# Probe 388 (0.55123 0.63737 0)
# Probe 389 (0.52106 0.64285 0)
# Probe 390 (0.26445 0.83725 0)
# Probe 391 (0.45477 0.59774 0)
# Probe 392 (0.44261 0.61202 0)
# Probe 393 (0.18028 0.41095 0)
# Probe 394 (0.19036 0.44746 0)
# Probe 395 (0.44496 0.38742 0)
# Probe 396 (0.29237 0.74009 0)
# Probe 397 (0.30425 0.72547 0)
# Probe 398 (0.1751 0.82876 0)
# Probe 399 (0.16264 0.7994 0)
# Probe 400 (0.2288 0.45459 0)
# Probe 401 (0.20383 0.48206 0)
# Probe 402 (0.46774 0.58294 0)
# Probe 403 (0.50472 0.5913 0)
# Probe 404 (0.44612 0.62793 0)
# Probe 405 (0.43006 0.62503 0)
# Probe 406 (0.42453 0.60818 0)
# Probe 407 (0.4131 0.6221 0)
# Probe 408 (0.79812 0.82369 0)
# Probe 409 (0.14905 0.44329 0)
# Probe 410 (0.81829 0.76192 0)
# Probe 411 (0.81116 0.72679 0)
# Probe 412 (0.63565 0.67506 0)
# Probe 413 (0.61304 0.66889 0)
# Probe 414 (0.61788 0.69013 0)
# Probe 415 (0.59789 0.68488 0)
# Probe 416 (0.60207 0.70383 0)
# Probe 417 (0.58121 0.7002 0)
# Probe 418 (0.58774 0.71745 0)
# Probe 419 (0.16672 0.65482 0)
# Probe 420 (0.15643 0.62524 0)
# Probe 421 (0.18389 0.60052 0)
# Probe 422 (0.16695 0.3702 0)
# Probe 423 (0.47136 0.19452 0)
# Probe 424 (0.28277 0.39747 0)
# Probe 425 (0.77006 0.47529 0)
# Probe 426 (0.80613 0.48723 0)
# Probe 427 (0.41883 0.63828 0)
# Probe 428 (0.40232 0.6356 0)
# Probe 429 (0.55149 0.31748 0)
# Probe 430 (0.78128 0.51372 0)
# Probe 431 (0.81467 0.52593 0)
# Probe 432 (0.48545 0.6345 0)
# Probe 433 (0.60541 0.72225 0)
# Probe 434 (0.5921 0.7345 0)
# Probe 435 (0.60881 0.73986 0)
# Probe 436 (0.59567 0.7519 0)
# Probe 437 (0.6123 0.75744 0)
# Probe 438 (0.59897 0.76964 0)
# Probe 439 (0.61646 0.7753 0)
# Probe 440 (0.60231 0.78813 0)
# Probe 441 (0.62078 0.79414 0)
# Probe 442 (0.60625 0.8065 0)
# Probe 443 (0.62523 0.81396 0)
# Probe 444 (0.60621 0.82752 0)
# Probe 445 (0.63169 0.83563 0)
# Probe 446 (0.55231 0.82679 0)
# Probe 447 (0.78717 0.55313 0)
# Probe 448 (0.8238 0.56405 0)
# Probe 449 (0.14712 0.59242 0)
# Probe 450 (0.84253 0.50192 0)
# Probe 451 (0.41224 0.3802 0)
# Probe 452 (0.82607 0.42006 0)
# Probe 453 (0.77408 0.1853 0)
# Probe 454 (0.65986 0.19613 0)
# Probe 455 (0.68987 0.16425 0)
# Probe 456 (0.8301 0.23941 0)
# Probe 457 (0.8415 0.28368 0)
# Probe 458 (0.67663 0.53149 0)
# Probe 459 (0.59181 0.42313 0)
# Probe 460 (0.23863 0.48927 0)
# Probe 461 (0.40641 0.60489 0)
# Probe 462 (0.21549 0.51419 0)
# Probe 463 (0.18143 0.50818 0)
# Probe 464 (0.72258 0.62702 0)
# Probe 465 (0.75216 0.63609 0)
# Probe 466 (0.76873 0.84904 0)
# Probe 467 (0.40752 0.65344 0)
# Probe 468 (0.39174 0.649 0)
# Probe 469 (0.38592 0.63326 0)
# Probe 470 (0.37605 0.64636 0)
# Probe 471 (0.38176 0.66124 0)
# Probe 472 (0.36648 0.65906 0)
# Probe 473 (0.37245 0.67341 0)
# Probe 474 (0.35777 0.67178 0)
# Probe 475 (0.41823 0.59008 0)
# Probe 476 (0.31021 0.74183 0)
# Probe 477 (0.29972 0.75556 0)
# Probe 478 (0.32072 0.72824 0)
# Probe 479 (0.31534 0.7124 0)
# Probe 480 (0.33112 0.71545 0)
# Probe 481 (0.32594 0.70017 0)
# Probe 482 (0.61277 0.85155 0)
# Probe 483 (0.63712 0.86098 0)
# Probe 484 (0.65824 0.84229 0)
# Probe 485 (0.66469 0.87104 0)
# Probe 486 (0.43513 0.35503 0)
# Probe 487 (0.36949 0.62984 0)
# Probe 488 (0.64737 0.15419 0)
# Probe 489 (0.57869 0.68105 0)
# Probe 490 (0.5652 0.69304 0)
# Probe 491 (0.42331 0.65367 0)
# Probe 492 (0.19192 0.72565 0)
# Probe 493 (0.5761 0.73027 0)
# Probe 494 (0.84598 0.73605 0)
# Probe 495 (0.83779 0.69938 0)
# Probe 496 (0.85398 0.77262 0)
# Probe 497 (0.46892 0.36307 0)
# Probe 498 (0.35184 0.65747 0)
# Probe 499 (0.34172 0.70422 0)
# Probe 500 (0.60562 0.64347 0)
# Probe 501 (0.12184 0.62045 0)
# Probe 502 (0.73806 0.36242 0)
# Probe 503 (0.31658 0.75673 0)
# Probe 504 (0.30742 0.77045 0)
# Probe 505 (0.13784 0.82571 0)
# Probe 506 (0.1239 0.79238 0)
# Probe 507 (0.15401 0.85702 0)
# Probe 508 (0.59055 0.84494 0)
# Probe 509 (0.3095 0.69624 0)
# Probe 510 (0.32089 0.68356 0)
# Probe 511 (0.29069 0.76951 0)
# Probe 512 (0.29858 0.78481 0)
# Probe 513 (0.39804 0.58715 0)
# Probe 514 (0.26191 0.46396 0)
# Probe 515 (0.5831 0.76345 0)
# Probe 516 (0.56139 0.67738 0)
# Probe 517 (0.5501 0.68903 0)
# Probe 518 (0.24761 0.521 0)
# Probe 519 (0.67815 0.12146 0)
# Probe 520 (0.22611 0.5449 0)
# Probe 521 (0.80626 0.86253 0)
# Probe 522 (0.54561 0.67404 0)
# Probe 523 (0.33547 0.33914 0)
# Probe 524 (0.6862 0.84863 0)
# Probe 525 (0.63516 0.77866 0)
# Probe 526 (0.55317 0.55525 0)
# Probe 527 (0.81566 0.3798 0)
# Probe 528 (0.85822 0.39148 0)
# Probe 529 (0.62377 0.72748 0)
# Probe 530 (0.59509 0.86671 0)
# Probe 531 (0.11177 0.58428 0)
# Probe 532 (0.69441 0.88132 0)
# Probe 533 (0.75909 0.66745 0)
# Probe 534 (0.78584 0.64542 0)
# Probe 535 (0.55338 0.70262 0)
# Probe 536 (0.53491 0.68541 0)
# Probe 537 (0.11372 0.85657 0)
# Probe 538 (0.60145 0.36195 0)
# Probe 539 (0.57522 0.85918 0)
# Probe 540 (0.70592 0.53911 0)
# Probe 541 (0.69942 0.50866 0)
# Probe 542 (0.63969 0.6977 0)
# Probe 543 (0.58884 0.79879 0)
# Probe 544 (0.57306 0.66414 0)
# Probe 545 (0.57796 0.88052 0)
# Probe 546 (0.77567 0.88806 0)
# Probe 547 (0.86906 0.43433 0)
# Probe 548 (0.36324 0.68506 0)
# Probe 549 (0.87626 0.70819 0)
# Probe 550 (0.86494 0.66901 0)
# Probe 551 (0.0804 0.6116 0)
# Probe 552 (0.72082 0.1323 0)
# Probe 553 (0.6411 0.89104 0)
# Probe 554 (0.39183 0.40448 0)
# Probe 555 (0.3166 0.78439 0)
# Probe 556 (0.30592 0.7999 0)
# Probe 557 (0.28874 0.7999 0)
# Probe 558 (0.29716 0.81609 0)
# Probe 559 (0.31541 0.81564 0)
# Probe 560 (0.30661 0.83143 0)
# Probe 561 (0.32446 0.83104 0)
# Probe 562 (0.31571 0.84626 0)
# Probe 563 (0.74451 0.60465 0)
# Probe 564 (0.3871 0.67742 0)
# Probe 565 (0.46031 0.33059 0)
# Probe 566 (0.40225 0.34802 0)
# Probe 567 (0.8738 0.25137 0)
# Probe 568 (0.86231 0.20635 0)
# Probe 569 (0.13665 0.558 0)
# Probe 570 (0.55845 0.87362 0)
# Probe 571 (0.41634 0.66629 0)
# Probe 572 (0.42763 0.66724 0)
# Probe 573 (0.43726 0.65689 0)
# Probe 574 (0.38656 0.60209 0)
# Probe 575 (0.44861 0.57868 0)
# Probe 576 (0.46203 0.56295 0)
# Probe 577 (0.88883 0.29071 0)
# Probe 578 (0.83684 0.83567 0)
# Probe 579 (0.84609 0.87659 0)
# Probe 580 (0.70603 0.08607 0)
# Probe 581 (0.17247 0.74835 0)
# Probe 582 (0.16101 0.71941 0)
# Probe 583 (0.53091 0.67103 0)
# Probe 584 (0.51968 0.68276 0)
# Probe 585 (0.87815 0.84921 0)
# Probe 586 (0.3316 0.84554 0)
# Probe 587 (0.32438 0.86152 0)
# Probe 588 (0.30481 0.86299 0)
# Probe 589 (0.31603 0.88023 0)
# Probe 590 (0.33826 0.87765 0)
# Probe 591 (0.32637 0.90324 0)
# Probe 592 (0.441 0.55819 0)
# Probe 593 (0.45558 0.5411 0)
# Probe 594 (0.47752 0.54681 0)
# Probe 595 (0.90983 0.67811 0)
# Probe 596 (0.89654 0.63991 0)
# Probe 597 (0.85553 0.62889 0)
# Probe 598 (0.88481 0.60314 0)
# Probe 599 (0.58945 0.61038 0)
# Probe 600 (0.51672 0.6684 0)
# Probe 601 (0.50552 0.67689 0)
# Probe 602 (0.50355 0.66484 0)
# Probe 603 (0.33525 0.73106 0)
# Probe 604 (0.47152 0.52449 0)
# Probe 605 (0.49327 0.33813 0)
# Probe 606 (0.50406 0.37157 0)
# Probe 607 (0.09872 0.64937 0)
# Probe 608 (0.3042 0.901 0)
# Probe 609 (0.8885 0.89026 0)
# Probe 610 (0.41059 0.57142 0)
# Probe 611 (0.61875 0.1861 0)
# Probe 612 (0.60249 0.1353 0)
# Probe 613 (0.76844 0.30347 0)
# Probe 614 (0.57213 0.83734 0)
# Probe 615 (0.58635 0.82793 0)
# Probe 616 (0.79841 0.58965 0)
# Probe 617 (0.56367 0.89576 0)
# Probe 618 (0.10207 0.54857 0)
# Probe 619 (0.12678 0.52352 0)
# Probe 620 (0.83909 0.3481 0)
# Probe 621 (0.88629 0.36074 0)
# Probe 622 (0.13988 0.74274 0)
# Probe 623 (0.1274 0.71302 0)
# Probe 624 (0.1036 0.73932 0)
# Probe 625 (0.39115 0.56886 0)
# Probe 626 (0.44747 0.51782 0)
# Probe 627 (0.34811 0.68356 0)
# Probe 628 (0.66759 0.49958 0)
# Probe 629 (0.69604 0.47952 0)
# Probe 630 (0.13816 0.89436 0)
# Probe 631 (0.30483 0.67856 0)
# Probe 632 (0.3208 0.66401 0)
# Probe 633 (0.29338 0.69452 0)
# Probe 634 (0.54076 0.66068 0)
# Probe 635 (0.49361 0.67289 0)
# Probe 636 (0.4905 0.66149 0)
# Probe 637 (0.48155 0.67042 0)
# Probe 638 (0.47778 0.65856 0)
# Probe 639 (0.49938 0.65375 0)
# Probe 640 (0.90783 0.21822 0)
# Probe 641 (0.89543 0.17203 0)
# Probe 642 (0.84953 0.1604 0)
# Probe 643 (0.88307 0.1206 0)
# Probe 644 (0.82852 0.11746 0)
# Probe 645 (0.78649 0.68211 0)
# Probe 646 (0.73451 0.83517 0)
# Probe 647 (0.71427 0.59621 0)
# Probe 648 (0.73731 0.57234 0)
# Probe 649 (0.59808 0.8902 0)
# Probe 650 (0.2552 0.81496 0)
# Probe 651 (0.67825 0.81979 0)
# Probe 652 (0.46915 0.66682 0)
# Probe 653 (0.46508 0.65523 0)
# Probe 654 (0.4572 0.66433 0)
# Probe 655 (0.39577 0.66453 0)
# Probe 656 (0.40014 0.67614 0)
# Probe 657 (0.18589 0.95505 0)
# Probe 658 (0.93247 0.64721 0)
# Probe 659 (0.58007 0.74636 0)
# Probe 660 (0.56513 0.74217 0)
# Probe 661 (0.56175 0.7274 0)
# Probe 662 (0.55386 0.73623 0)
# Probe 663 (0.56992 0.75738 0)
# Probe 664 (0.57143 0.77125 0)
# Probe 665 (0.5716 0.71608 0)
# Probe 666 (0.75406 0.09596 0)
# Probe 667 (0.25996 0.55529 0)
# Probe 668 (0.27675 0.52835 0)
# Probe 669 (0.08694 0.70991 0)
# Probe 670 (0.06881 0.74088 0)
# Probe 671 (0.0841 0.77821 0)
# Probe 672 (0.2593 0.75852 0)
# Probe 673 (0.26375 0.7807 0)
# Probe 674 (0.23733 0.57587 0)
# Probe 675 (0.20605 0.56846 0)
# Probe 676 (0.21693 0.59766 0)
# Probe 677 (0.67575 0.96081 0)
# Probe 678 (0.45224 0.65396 0)
# Probe 679 (0.46163 0.64328 0)
# Probe 680 (0.5398 0.69947 0)
# Probe 681 (0.33998 0.83451 0)
# Probe 682 (0.09301 0.88714 0)
# Probe 683 (0.32788 0.74492 0)
# Probe 684 (0.33164 0.75992 0)
# Probe 685 (0.1835 0.69935 0)
# Probe 686 (0.58374 0.78102 0)
# Probe 687 (0.57212 0.79321 0)
# Probe 688 (0.57641 0.8066 0)
# Probe 689 (0.76224 0.70169 0)
# Probe 690 (0.34631 0.71922 0)
# Probe 691 (0.35665 0.70669 0)
# Probe 692 (0.3233 0.77015 0)
# Probe 693 (0.54277 0.71361 0)
# Probe 694 (0.53049 0.70947 0)
# Probe 695 (0.52538 0.69725 0)
# Probe 696 (0.33669 0.77123 0)
# Probe 697 (0.30204 0.63722 0)
# Probe 698 (0.32507 0.64275 0)
# Probe 699 (0.33635 0.62763 0)
# Probe 700 (0.33822 0.60678 0)
# Probe 701 (0.36505 0.6078 0)
# Probe 702 (0.28106 0.85919 0)
# Probe 703 (0.37597 0.68725 0)
# Probe 704 (0.3686 0.69821 0)
# Probe 705 (0.6613 0.7125 0)
# Probe 706 (0.09204 0.51065 0)
# Probe 707 (0.12316 0.48193 0)
# Probe 708 (0.07808 0.47046 0)
# Probe 709 (0.10806 0.43829 0)
# Probe 710 (0.06479 0.43115 0)
# Probe 711 (0.09445 0.39585 0)
# Probe 712 (0.08694 0.34685 0)
# Probe 713 (0.26867 0.67409 0)
# Probe 714 (0.79971 0.33941 0)
# Probe 715 (0.33423 0.671 0)
# Probe 716 (0.82294 0.66316 0)
# Probe 717 (0.72978 0.51993 0)
# Probe 718 (0.46564 0.91264 0)
# Probe 719 (0.56055 0.85188 0)
# Probe 720 (0.5446 0.86045 0)
# Probe 721 (0.54201 0.87734 0)
# Probe 722 (0.37904 0.89822 0)
# Probe 723 (0.36448 0.89103 0)
# Probe 724 (0.30857 0.36905 0)
# Probe 725 (0.3187 0.40542 0)
# Probe 726 (0.29657 0.43108 0)
# Probe 727 (0.32765 0.43873 0)
# Probe 728 (0.30981 0.46167 0)
# Probe 729 (0.34545 0.38026 0)
# Probe 730 (0.25963 0.42999 0)
# Probe 731 (0.77045 0.95871 0)
# Probe 732 (0.43347 0.68237 0)
# Probe 733 (0.43857 0.6718 0)
# Probe 734 (0.4224 0.67798 0)
# Probe 735 (0.49628 0.69242 0)
# Probe 736 (0.3861 0.70261 0)
# Probe 737 (0.40402 0.69227 0)
# Probe 738 (0.50583 0.69722 0)
# Probe 739 (0.26958 0.4993 0)
# Probe 740 (0.30114 0.5125 0)
# Probe 741 (0.55455 0.76317 0)
# Probe 742 (0.47669 0.68555 0)
# Probe 743 (0.45544 0.68212 0)
# Probe 744 (0.37661 0.70783 0)
# Probe 745 (0.36338 0.72563 0)
# Probe 746 (0.53128 0.52315 0)
# Probe 747 (0.51396 0.53985 0)
# Probe 748 (0.57145 0.62816 0)
# Probe 749 (0.35201 0.74356 0)
# Probe 750 (0.34148 0.74343 0)
# Probe 751 (0.43383 0.64051 0)
# Probe 752 (0.53446 0.57369 0)
# Probe 753 (0.36131 0.30854 0)
# Probe 754 (0.6237 0.62444 0)
# Probe 755 (0.61183 0.59808 0)
# Probe 756 (0.28629 0.5548 0)
# Probe 757 (0.55918 0.77423 0)
# Probe 758 (0.55892 0.79584 0)
# Probe 759 (0.34093 0.79502 0)
# Probe 760 (0.32957 0.7899 0)
# Probe 761 (0.33055 0.801 0)
# Probe 762 (0.34279 0.8059 0)
# Probe 763 (0.33418 0.81304 0)
# Probe 764 (0.69855 0.92187 0)
# Probe 765 (0.3621 0.8548 0)
# Probe 766 (0.35194 0.85409 0)
# Probe 767 (0.35409 0.8659 0)
# Probe 768 (0.35178 0.83624 0)
# Probe 769 (0.95708 0.77565 0)
# Probe 770 (0.92017 0.75726 0)
# Probe 771 (0.9159 0.79701 0)
# Probe 772 (0.65903 0.07899 0)
# Probe 773 (0.65203 0.92827 0)
# Probe 774 (0.1991 0.8869 0)
# Probe 775 (0.42571 0.04258 0)
# Probe 776 (0.40137 0.08379 0)
# Probe 777 (0.35373 0.08451 0)
# Probe 778 (0.37868 0.12426 0)
# Probe 779 (0.33251 0.12599 0)
# Probe 780 (0.42463 0.12348 0)
# Probe 781 (0.30639 0.08676 0)
# Probe 782 (0.28605 0.1284 0)
# Probe 783 (0.31098 0.16516 0)
# Probe 784 (0.26494 0.1694 0)
# Probe 785 (0.23986 0.13075 0)
# Probe 786 (0.21869 0.17257 0)
# Probe 787 (0.19326 0.13304 0)
# Probe 788 (0.17216 0.17508 0)
# Probe 789 (0.1977 0.21439 0)
# Probe 790 (0.15145 0.217 0)
# Probe 791 (0.14579 0.13543 0)
# Probe 792 (0.1754 0.25486 0)
# Probe 793 (0.13021 0.25857 0)
# Probe 794 (0.15389 0.29545 0)
# Probe 795 (0.16624 0.09222 0)
# Probe 796 (0.10502 0.22016 0)
# Probe 797 (0.10862 0.30122 0)
# Probe 798 (0.40281 0.16829 0)
# Probe 799 (0.28942 0.20389 0)
# Probe 800 (0.1362 0.33642 0)
# Probe 801 (0.05997 0.30382 0)
# Probe 802 (0.22142 0.25094 0)
# Probe 803 (0.11663 0.09632 0)
# Probe 804 (0.08471 0.05998 0)
# Probe 805 (0.09732 0.13871 0)
# Probe 806 (0.5701 0.53398 0)
# Probe 807 (0.54797 0.83634 0)
# Probe 808 (0.55526 0.81649 0)
# Probe 809 (0.03811 0.62577 0)
# Probe 810 (0.0437 0.57866 0)
# Probe 811 (0.54937 0.72544 0)
# Probe 812 (0.92187 0.86163 0)
# Probe 813 (0.7447 0.91727 0)
# Probe 814 (0.35482 0.16362 0)
# Probe 815 (0.24424 0.2101 0)
# Probe 816 (0.58923 0.32516 0)
# Probe 817 (0.56466 0.3541 0)
# Probe 818 (0.53576 0.85366 0)
# Probe 819 (0.5633 0.82536 0)
# Probe 820 (0.17175 0.5656 0)
# Probe 821 (0.95675 0.52659 0)
# Probe 822 (0.91463 0.54687 0)
# Probe 823 (0.91554 0.50157 0)
# Probe 824 (0.95687 0.47593 0)
# Probe 825 (0.91391 0.45225 0)
# Probe 826 (0.90302 0.40447 0)
# Probe 827 (0.93185 0.36932 0)
# Probe 828 (0.67224 0.76886 0)
# Probe 829 (0.87518 0.95732 0)
# Probe 830 (0.44973 0.08375 0)
# Probe 831 (0.49611 0.08595 0)
# Probe 832 (0.47168 0.12352 0)
# Probe 833 (0.51745 0.12609 0)
# Probe 834 (0.54029 0.09029 0)
# Probe 835 (0.52188 0.04524 0)
# Probe 836 (0.57367 0.05234 0)
# Probe 837 (0.61192 0.08713 0)
# Probe 838 (0.4246 0.28985 0)
# Probe 839 (0.17628 0.91322 0)
# Probe 840 (0.57807 0.38966 0)
# Probe 841 (0.54062 0.38016 0)
# Probe 842 (0.55008 0.41699 0)
# Probe 843 (0.08111 0.26306 0)
# Probe 844 (0.07468 0.17804 0)
# Probe 845 (0.52278 0.8703 0)
# Probe 846 (0.52913 0.883 0)
# Probe 847 (0.51607 0.89105 0)
# Probe 848 (0.72312 0.28863 0)
# Probe 849 (0.9306 0.90698 0)
# Probe 850 (0.73099 0.46443 0)
# Probe 851 (0.04524 0.87769 0)
# Probe 852 (0.17805 0.04447 0)
# Probe 853 (0.87789 0.52505 0)
# Probe 854 (0.3275 0.04374 0)
# Probe 855 (0.27873 0.04425 0)
# Probe 856 (0.956 0.2282 0)
# Probe 857 (0.74305 0.87401 0)
# Probe 858 (0.95814 0.32737 0)
# Probe 859 (0.37679 0.87073 0)
# Probe 860 (0.82492 0.04071 0)
# Probe 861 (0.96021 0.12362 0)
# Probe 862 (0.34974 0.41559 0)
# Probe 863 (0.66033 0.68375 0)
# Probe 864 (0.52829 0.34572 0)
# Probe 865 (0.47809 0.39482 0)
# Probe 866 (0.55755 0.13226 0)
# Probe 867 (0.53615 0.16723 0)
# Probe 868 (0.3698 0.56626 0)
# Probe 869 (0.27715 0.81676 0)
# Probe 870 (0.48353 0.30312 0)
# Probe 871 (0.1592 0.47838 0)
# Probe 872 (0.46671 0.89779 0)
# Probe 873 (0.72565 0.04244 0)
# Probe 874 (0.44527 0.16098 0)
# Probe 875 (0.34175 0.92856 0)
# Probe 876 (0.28013 0.91819 0)
# Probe 877 (0.80281 0.15379 0)
# Probe 878 (0.33791 0.4692 0)
# Probe 879 (0.40776 0.90857 0)
# Probe 880 (0.39428 0.88296 0)
# Probe 881 (0.41212 0.8953 0)
# Probe 882 (0.48448 0.89524 0)
# Probe 883 (0.49629 0.90261 0)
# Probe 884 (0.50582 0.88391 0)
# Probe 885 (0.21371 0.09056 0)
# Probe 886 (0.92744 0.61026 0)
# Probe 887 (0.45573 0.90048 0)
# Probe 888 (0.44783 0.91333 0)
# Probe 889 (0.43284 0.91127 0)
# Probe 890 (0.43353 0.89755 0)
# Probe 891 (0.39627 0.68652 0)
# Probe 892 (0.23074 0.62211 0)
# Probe 893 (0.64654 0.73112 0)
# Probe 894 (0.64719 0.7565 0)
# Probe 895 (0.1244 0.1774 0)
# Probe 896 (0.69238 0.31553 0)
# Probe 897 (0.19377 0.53945 0)
# Probe 898 (0.2876 0.83318 0)
# Probe 899 (0.59278 0.21911 0)
# Probe 900 (0.73177 0.17544 0)
# Probe 901 (0.37923 0.37292 0)
# Probe 902 (0.70089 0.35285 0)
# Probe 903 (0.614 0.39699 0)
# Probe 904 (0.83593 0.4607 0)
# Probe 905 (0.63259 0.2286 0)
# Probe 906 (0.81767 0.19629 0)
# Probe 907 (0.17821 0.32769 0)
# Probe 908 (0.59232 0.66524 0)
# Probe 909 (0.5837 0.64671 0)
# Probe 910 (0.51473 0.69313 0)
# Probe 911 (0.15191 0.68638 0)
# Probe 912 (0.13414 0.65526 0)
# Probe 913 (0.80125 0.08273 0)
# Probe 914 (0.21206 0.70634 0)
# Probe 915 (0.56891 0.44823 0)
# Probe 916 (0.34487 0.76367 0)
# Probe 917 (0.51209 0.20007 0)
# Probe 918 (0.48213 0.56777 0)
# Probe 919 (0.43264 0.53614 0)
# Probe 920 (0.57619 0.17474 0)
# Probe 921 (0.39628 0.62011 0)
# Probe 922 (0.77562 0.37128 0)
# Probe 923 (0.64669 0.52399 0)
# Probe 924 (0.26096 0.0905 0)
# Probe 925 (0.07591 0.95669 0)
# Probe 926 (0.81564 0.6215 0)
# Probe 927 (0.92591 0.04788 0)
# Probe 928 (0.48448 0.42574 0)
# Probe 929 (0.81479 0.90342 0)
# Probe 930 (0.69437 0.61949 0)
# Probe 931 (0.14094 0.40348 0)
# Probe 932 (0.73466 0.68642 0)
# Probe 933 (0.40403 0.43526 0)
# Probe 934 (0.73052 0.79922 0)
# Probe 935 (0.24691 0.60297 0)
# Probe 936 (0.28062 0.75417 0)
# Probe 937 (0.33099 0.51607 0)
# Probe 938 (0.85519 0.91863 0)
# Probe 939 (0.43645 0.59378 0)
# Probe 940 (0.82495 0.79813 0)
# Probe 941 (0.16178 0.53535 0)
# Probe 942 (0.55627 0.66276 0)
# Probe 943 (0.36603 0.47601 0)
# Probe 944 (0.37013 0.20239 0)
# Probe 945 (0.42873 0.32376 0)
# Probe 946 (0.87573 0.4773 0)
# Probe 947 (0.32062 0.49073 0)
# Probe 948 (0.24387 0.28662 0)
# Probe 949 (0.37323 0.96758 0)
# Probe 950 (0.52344 0.59447 0)
# Probe 951 (0.89495 0.07849 0)
# Probe 952 (0.65177 0.81659 0)
# Probe 953 (0.1835 0.77565 0)
# Probe 954 (0.36074 0.64312 0)
# Probe 955 (0.31264 0.92807 0)
# Probe 956 (0.48679 0.58693 0)
# Probe 957 (0.48221 0.91181 0)
# Probe 958 (0.67031 0.89986 0)
# Probe 959 (0.03848 0.768 0)
# Probe 960 (0.09678 0.82162 0)
# Probe 961 (0.51494 0.40183 0)
# Probe 962 (0.3799 0.61792 0)
# Probe 963 (0.84442 0.59404 0)
# Probe 964 (0.35643 0.44827 0)
# Probe 965 (0.54328 0.73469 0)
# Probe 966 (0.47412 0.64607 0)
# Probe 967 (0.42381 0.51383 0)
# Probe 968 (0.18742 0.85795 0)
# Probe 969 (0.36545 0.87529 0)
# Probe 970 (0.29963 0.70899 0)
# Probe 971 (0.62003 0.70963 0)