# Probe 0 (0 0 0)
# Probe 1 (1 0 0)
# Probe 2 (1 1 0)
# Probe 3 (0 1 0)
# Probe 4 (0.57 0.48 0)
# Probe 5 (0.47 0.38 0)
# Probe 6 (0.37 0.48 0)
# Probe 7 (0.47 0.58 0)
# Probe 8 (0.05 0 0)
# Probe 9 (0.1 0 0)
# Probe 10 (0.15 0 0)
# Probe 11 (0.2 0 0)
# Probe 12 (0.25 0 0)
# Probe 13 (0.3 0 0)
# Probe 14 (0.35 0 0)
# Probe 15 (0.4 0 0)
# Probe 16 (0.45 0 0)
# Probe 17 (0.5 0 0)
# Probe 18 (0.55 0 0)
# Probe 19 (0.6 0 0)
# Probe 20 (0.65 0 0)
# Probe 21 (0.7 0 0)
# Probe 22 (0.75 0 0)
# Probe 23 (0.8 0 0)
# Probe 24 (0.85 0 0)
# Probe 25 (0.9 0 0)
# Probe 26 (0.95 0 0)
# Probe 27 (1 0.05 0)
# Probe 28 (1 0.1 0)
# Probe 29 (1 0.15 0)
# Probe 30 (1 0.2 0)
# Probe 31 (1 0.25 0)
# Probe 32 (1 0.3 0)
# Probe 33 (1 0.35 0)
# Probe 34 (1 0.4 0)
# Probe 35 (1 0.45 0)
# Probe 36 (1 0.5 0)
# Probe 37 (1 0.55 0)
# Probe 38 (1 0.6 0)
# Probe 39 (1 0.65 0)
# Probe 40 (1 0.7 0)
# Probe 41 (1 0.75 0)
# Probe 42 (1 0.8 0)
# Probe 43 (1 0.85 0)
# Probe 44 (1 0.9 0)
# Probe 45 (1 0.95 0)
# Probe 46 (0.95 1 0)
# Probe 47 (0.9 1 0)
# Probe 48 (0.85 1 0)
# Probe 49 (0.8 1 0)
# Probe 50 (0.75 1 0)
# Probe 51 (0.7 1 0)
# Probe 52 (0.65 1 0)
# Probe 53 (0.6 1 0)
# Probe 54 (0.55 1 0)
# Probe 55 (0.5 1 0)
# Probe 56 (0.45 1 0)
# Probe 57 (0.4 1 0)
# Probe 58 (0.35 1 0)
# Probe 59 (0.3 1 0)
# Probe 60 (0.25 1 0)
# Probe 61 (0.2 1 0)
# Probe 62 (0.15 1 0)
# Probe 63 (0.1 1 0)
# Probe 64 (0.05 1 0)
# Probe 65 (0 0.95 0)
# Probe 66 (0 0.9 0)
# Probe 67 (0 0.85 0)
# Probe 68 (0 0.8 0)
# Probe 69 (0 0.75 0)
# Probe 70 (0 0.7 0)
# Probe 71 (0 0.65 0)
# Probe 72 (0 0.6 0)
# Probe 73 (0 0.55 0)
# Probe 74 (0 0.5 0)
# Probe 75 (0 0.45 0)
# Probe 76 (0 0.4 0)
# Probe 77 (0 0.35 0)
# Probe 78 (0 0.3 0)
# Probe 79 (0 0.25 0)
# Probe 80 (0 0.2 0)
# Probe 81 (0 0.15 0)
# Probe 82 (0 0.1 0)
# Probe 83 (0 0.05 0)
# Probe 84 (0.56952 0.4702 0)
# Probe 85 (0.56808 0.46049 0)
# Probe 86 (0.56569 0.45097 0)
# Probe 87 (0.56239 0.44173 0)
# Probe 88 (0.55819 0.43286 0)
# Probe 89 (0.55315 0.42444 0)
# Probe 90 (0.5473 0.41656 0)
# Probe 91 (0.54071 0.40929 0)
# Probe 92 (0.53344 0.4027 0)
# Probe 93 (0.52556 0.39685 0)
# Probe 94 (0.51714 0.39181 0)
# Probe 95 (0.50827 0.38761 0)
# Probe 96 (0.49903 0.38431 0)
# Probe 97 (0.48951 0.38192 0)
# Probe 98 (0.4798 0.38048 0)
# Probe 99 (0.4602 0.38048 0)
# Probe 100 (0.45049 0.38192 0)
# Probe 101 (0.44097 0.38431 0)
# Probe 102 (0.43173 0.38761 0)
# Probe 103 (0.42286 0.39181 0)
# Probe 104 (0.41444 0.39685 0)
# Probe 105 (0.40656 0.4027 0)
# Probe 106 (0.39929 0.40929 0)
# Probe 107 (0.3927 0.41656 0)
# Probe 108 (0.38685 0.42444 0)
# Probe 109 (0.38181 0.43286 0)
# Probe 110 (0.37761 0.44173 0)
# Probe 111 (0.37431 0.45097 0)
# Probe 112 (0.37192 0.46049 0)
# Probe 113 (0.37048 0.4702 0)
# Probe 114 (0.37048 0.4898 0)
# Probe 115 (0.37192 0.49951 0)
# Probe 116 (0.37431 0.50903 0)
# Probe 117 (0.37761 0.51827 0)
# Probe 118 (0.38181 0.52714 0)
# Probe 119 (0.38685 0.53556 0)
# Probe 120 (0.3927 0.54344 0)
# Probe 121 (0.39929 0.55071 0)
# Probe 122 (0.40656 0.5573 0)
# Probe 123 (0.41444 0.56315 0)
# Probe 124 (0.42286 0.56819 0)
# Probe 125 (0.43173 0.57239 0)
# Probe 126 (0.44097 0.57569 0)
# Probe 127 (0.45049 0.57808 0)
# Probe 128 (0.4602 0.57952 0)
# Probe 129 (0.4798 0.57952 0)
# Probe 130 (0.48951 0.57808 0)
# Probe 131 (0.49903 0.57569 0)
# Probe 132 (0.50827 0.57239 0)
# Probe 133 (0.51714 0.56819 0)
# Probe 134 (0.52556 0.56315 0)
# Probe 135 (0.53344 0.5573 0)
# Probe 136 (0.54071 0.55071 0)
# Probe 137 (0.5473 0.54344 0)
# Probe 138 (0.55315 0.53556 0)
# Probe 139 (0.55819 0.52714 0)
# Probe 140 (0.56239 0.51827 0)
# Probe 141 (0.56569 0.50903 0)
# Probe 142 (0.56808 0.49951 0)
# Probe 143 (0.56952 0.4898 0)
# Probe 144 (0.95908 0.7259 0)
# Probe 145 (0.95832 0.275 0)
# Probe 146 (0.67416 0.96042 0)
# Probe 147 (0.28373 0.96063 0)
# Probe 148 (0.67043 0.04022 0)
# Probe 149 (0.27428 0.04006 0)
# Probe 150 (0.9567 0.575 0)
# Probe 151 (0.04013 0.27645 0)
# Probe 152 (0.04078 0.67121 0)
# Probe 153 (0.95793 0.4221 0)
# Probe 154 (0.52726 0.96062 0)
# Probe 155 (0.52801 0.03924 0)
# Probe 156 (0.04237 0.42682 0)
# Probe 157 (0.04519 0.82548 0)
# Probe 158 (0.825 0.0433 0)
# Probe 159 (0.82391 0.95922 0)
# Probe 160 (0.04247 0.52375 0)
# Probe 161 (0.4281 0.04727 0)
# Probe 162 (0.04302 0.17041 0)
# Probe 163 (0.17411 0.04074 0)
# Probe 164 (0.42351 0.95855 0)
# Probe 165 (0.18043 0.96007 0)
# Probe 166 (0.9567 0.175 0)
# Probe 167 (0.95831 0.81734 0)
# Probe 168 (0.92738 0.95484 0)
# Probe 169 (0.0433 0.925 0)
# Probe 170 (0.04241 0.08037 0)
# Probe 171 (0.91657 0.04506 0)
# Probe 172 (0.04173 0.47436 0)
# Probe 173 (0.08025 0.44959 0)
# Probe 174 (0.08235 0.4073 0)
# Probe 175 (0.11614 0.42732 0)
# Probe 176 (0.11834 0.3896 0)
# Probe 177 (0.15088 0.40938 0)
# Probe 178 (0.15053 0.45049 0)
# Probe 179 (0.36303 0.46364 0)
# Probe 180 (0.15141 0.37342 0)
# Probe 181 (0.18118 0.39094 0)
# Probe 182 (0.18223 0.35758 0)
# Probe 183 (0.20979 0.37462 0)
# Probe 184 (0.377 0.42398 0)
# Probe 185 (0.21114 0.34352 0)
# Probe 186 (0.23792 0.35968 0)
# Probe 187 (0.23878 0.33006 0)
# Probe 188 (0.2359 0.38797 0)
# Probe 189 (0.26368 0.34415 0)
# Probe 190 (0.26436 0.31613 0)
# Probe 191 (0.28703 0.33092 0)
# Probe 192 (0.40577 0.39251 0)
# Probe 193 (0.29002 0.30287 0)
# Probe 194 (0.26539 0.28714 0)
# Probe 195 (0.29164 0.27439 0)
# Probe 196 (0.31607 0.2902 0)
# Probe 197 (0.31801 0.26183 0)
# Probe 198 (0.34029 0.27801 0)
# Probe 199 (0.43398 0.37882 0)
# Probe 200 (0.34386 0.24964 0)
# Probe 201 (0.36695 0.26885 0)
# Probe 202 (0.3897 0.40722 0)
# Probe 203 (0.36775 0.44336 0)
# Probe 204 (0.2667 0.25694 0)
# Probe 205 (0.36975 0.23789 0)
# Probe 206 (0.3937 0.25355 0)
# Probe 207 (0.28644 0.35599 0)
# Probe 208 (0.39601 0.22581 0)
# Probe 209 (0.41981 0.24092 0)
# Probe 210 (0.46455 0.37189 0)
# Probe 211 (0.42236 0.21296 0)
# Probe 212 (0.44495 0.22774 0)
# Probe 213 (0.44334 0.25526 0)
# Probe 214 (0.46714 0.2451 0)
# Probe 215 (0.49633 0.37487 0)
# Probe 216 (0.47149 0.21334 0)
# Probe 217 (0.49193 0.23366 0)
# Probe 218 (0.48736 0.26086 0)
# Probe 219 (0.5117 0.25173 0)
# Probe 220 (0.51667 0.22534 0)
# Probe 221 (0.53684 0.24287 0)
# Probe 222 (0.53228 0.27242 0)
# Probe 223 (0.55749 0.26146 0)
# Probe 224 (0.53476 0.39293 0)
# Probe 225 (0.56249 0.23383 0)
# Probe 226 (0.5828 0.25247 0)
# Probe 227 (0.5776 0.27901 0)
# Probe 228 (0.60264 0.27083 0)
# Probe 229 (0.59674 0.29631 0)
# Probe 230 (0.62167 0.28896 0)
# Probe 231 (0.61304 0.31686 0)
# Probe 232 (0.64073 0.30674 0)
# Probe 233 (0.63481 0.33223 0)
# Probe 234 (0.65977 0.32367 0)
# Probe 235 (0.65418 0.34945 0)
# Probe 236 (0.57224 0.44347 0)
# Probe 237 (0.6788 0.34163 0)
# Probe 238 (0.67409 0.36639 0)
# Probe 239 (0.68628 0.31493 0)
# Probe 240 (0.62907 0.26327 0)
# Probe 241 (0.69865 0.35953 0)
# Probe 242 (0.69281 0.38947 0)
# Probe 243 (0.55713 0.41564 0)
# Probe 244 (0.71908 0.37845 0)
# Probe 245 (0.71455 0.40648 0)
# Probe 246 (0.57768 0.46517 0)
# Probe 247 (0.74117 0.39871 0)
# Probe 248 (0.73382 0.42702 0)
# Probe 249 (0.74571 0.36809 0)
# Probe 250 (0.70871 0.43379 0)
# Probe 251 (0.72631 0.45261 0)
# Probe 252 (0.70077 0.45939 0)
# Probe 253 (0.71936 0.47769 0)
# Probe 254 (0.57701 0.49602 0)
# Probe 255 (0.69499 0.48432 0)
# Probe 256 (0.71287 0.50194 0)
# Probe 257 (0.68941 0.50852 0)
# Probe 258 (0.70673 0.52565 0)
# Probe 259 (0.56979 0.52568 0)
# Probe 260 (0.6837 0.5316 0)
# Probe 261 (0.70077 0.54898 0)
# Probe 262 (0.67784 0.55507 0)
# Probe 263 (0.69485 0.57223 0)
# Probe 264 (0.67161 0.57822 0)
# Probe 265 (0.68902 0.59573 0)
# Probe 266 (0.66522 0.60201 0)
# Probe 267 (0.68348 0.62023 0)
# Probe 268 (0.65987 0.62639 0)
# Probe 269 (0.67772 0.64563 0)
# Probe 270 (0.6486 0.64964 0)
# Probe 271 (0.53515 0.56734 0)
# Probe 272 (0.67144 0.67244 0)
# Probe 273 (0.6435 0.67992 0)
# Probe 274 (0.70897 0.61105 0)
# Probe 275 (0.72313 0.54339 0)
# Probe 276 (0.66491 0.70101 0)
# Probe 277 (0.6363 0.70895 0)
# Probe 278 (0.6157 0.68827 0)
# Probe 279 (0.60794 0.71612 0)
# Probe 280 (0.58815 0.69594 0)
# Probe 281 (0.50651 0.58204 0)
# Probe 282 (0.58042 0.72301 0)
# Probe 283 (0.56122 0.70333 0)
# Probe 284 (0.55362 0.72991 0)
# Probe 285 (0.53503 0.70992 0)
# Probe 286 (0.47532 0.58825 0)
# Probe 287 (0.52718 0.73655 0)
# Probe 288 (0.50775 0.71256 0)
# Probe 289 (0.69445 0.69243 0)
# Probe 290 (0.50072 0.74287 0)
# Probe 291 (0.48311 0.72387 0)
# Probe 292 (0.47484 0.75022 0)
# Probe 293 (0.45652 0.72636 0)
# Probe 294 (0.44372 0.58528 0)
# Probe 295 (0.44839 0.75749 0)
# Probe 296 (0.42768 0.73678 0)
# Probe 297 (0.74814 0.47362 0)
# Probe 298 (0.42022 0.76567 0)
# Probe 299 (0.39946 0.74439 0)
# Probe 300 (0.68647 0.72314 0)
# Probe 301 (0.40706 0.71689 0)
# Probe 302 (0.37952 0.72357 0)
# Probe 303 (0.38883 0.69745 0)
# Probe 304 (0.36452 0.70395 0)
# Probe 305 (0.40584 0.56653 0)
# Probe 306 (0.35212 0.73082 0)
# Probe 307 (0.33617 0.70434 0)
# Probe 308 (0.37117 0.52613 0)
# Probe 309 (0.32282 0.73712 0)
# Probe 310 (0.30219 0.7139 0)
# Probe 311 (0.31173 0.6844 0)
# Probe 312 (0.28141 0.69093 0)
# Probe 313 (0.29093 0.66274 0)
# Probe 314 (0.26825 0.71652 0)
# Probe 315 (0.57366 0.75042 0)
# Probe 316 (0.71839 0.71356 0)
# Probe 317 (0.26158 0.668 0)
# Probe 318 (0.27093 0.6403 0)
# Probe 319 (0.5503 0.55278 0)
# Probe 320 (0.38798 0.55337 0)
# Probe 321 (0.42366 0.57797 0)
# Probe 322 (0.36487 0.50633 0)
# Probe 323 (0.24133 0.64564 0)
# Probe 324 (0.25196 0.61814 0)
# Probe 325 (0.70956 0.74703 0)
# Probe 326 (0.4134 0.69105 0)
# Probe 327 (0.59559 0.66977 0)
# Probe 328 (0.22077 0.61769 0)
# Probe 329 (0.2829 0.61087 0)
# Probe 330 (0.26209 0.59136 0)
# Probe 331 (0.31976 0.65685 0)
# Probe 332 (0.6821 0.44054 0)
# Probe 333 (0.64364 0.60707 0)
# Probe 334 (0.7432 0.73665 0)
# Probe 335 (0.48747 0.69862 0)
# Probe 336 (0.39743 0.67353 0)
# Probe 337 (0.54363 0.68409 0)
# Probe 338 (0.49539 0.76997 0)
# Probe 339 (0.37429 0.20947 0)
# Probe 340 (0.33813 0.30617 0)
# Probe 341 (0.6722 0.4918 0)
# Probe 342 (0.64823 0.37504 0)
# Probe 343 (0.77007 0.39034 0)
# Probe 344 (0.77517 0.35715 0)
# Probe 345 (0.21099 0.65243 0)
# Probe 346 (0.65532 0.56085 0)
# Probe 347 (0.57022 0.30632 0)
# Probe 348 (0.39133 0.27943 0)
# Probe 349 (0.28711 0.58398 0)
# Probe 350 (0.27008 0.56639 0)
# Probe 351 (0.73554 0.77165 0)
# Probe 352 (0.70052 0.78111 0)
# Probe 353 (0.41808 0.66732 0)
# Probe 354 (0.6145 0.34145 0)
# Probe 355 (0.18195 0.32546 0)
# Probe 356 (0.74821 0.7046 0)
# Probe 357 (0.7709 0.76089 0)
# Probe 358 (0.18833 0.62761 0)
# Probe 359 (0.40381 0.65187 0)
# Probe 360 (0.29404 0.56168 0)
# Probe 361 (0.27822 0.54298 0)
# Probe 362 (0.25345 0.54746 0)
# Probe 363 (0.2625 0.52392 0)
# Probe 364 (0.30936 0.57753 0)
# Probe 365 (0.72709 0.80779 0)
# Probe 366 (0.28941 0.52 0)
# Probe 367 (0.27212 0.50172 0)
# Probe 368 (0.58897 0.22459 0)
# Probe 369 (0.23635 0.52759 0)
# Probe 370 (0.80058 0.37992 0)
# Probe 371 (0.80803 0.3468 0)
# Probe 372 (0.78112 0.32347 0)
# Probe 373 (0.29479 0.49718 0)
# Probe 374 (0.28097 0.48073 0)
# Probe 375 (0.25807 0.48304 0)
# Probe 376 (0.56702 0.20478 0)
# Probe 377 (0.59681 0.19477 0)
# Probe 378 (0.39133 0.77381 0)
# Probe 379 (0.41396 0.79655 0)
# Probe 380 (0.38206 0.80513 0)
# Probe 381 (0.81536 0.31245 0)
# Probe 382 (0.78757 0.28868 0)
# Probe 383 (0.82316 0.27672 0)
# Probe 384 (0.79361 0.2516 0)
# Probe 385 (0.42254 0.64657 0)
# Probe 386 (0.17867 0.661 0)
# Probe 387 (0.68953 0.81809 0)
# Probe 388 (0.32085 0.23258 0)
# Probe 389 (0.30187 0.47771 0)
# Probe 390 (0.3604 0.48556 0)
# Probe 391 (0.28915 0.4614 0)
# Probe 392 (0.30889 0.45868 0)
# Probe 393 (0.29675 0.44295 0)
# Probe 394 (0.31567 0.4403 0)
# Probe 395 (0.84207 0.3374 0)
# Probe 396 (0.40947 0.63214 0)
# Probe 397 (0.39074 0.63673 0)
# Probe 398 (0.31595 0.55797 0)
# Probe 399 (0.32976 0.57309 0)
# Probe 400 (0.57203 0.17342 0)
# Probe 401 (0.60334 0.16207 0)
# Probe 402 (0.62917 0.18517 0)
# Probe 403 (0.39676 0.61832 0)
# Probe 404 (0.37922 0.6218 0)
# Probe 405 (0.1546 0.63391 0)
# Probe 406 (0.16706 0.60031 0)
# Probe 407 (0.83129 0.23912 0)
# Probe 408 (0.80153 0.21347 0)
# Probe 409 (0.76365 0.22645 0)
# Probe 410 (0.77135 0.18796 0)
# Probe 411 (0.40548 0.82867 0)
# Probe 412 (0.3719 0.8377 0)
# Probe 413 (0.30399 0.42506 0)
# Probe 414 (0.32509 0.42353 0)
# Probe 415 (0.80959 0.17359 0)
# Probe 416 (0.38497 0.60534 0)
# Probe 417 (0.42717 0.6284 0)
# Probe 418 (0.4398 0.64093 0)
# Probe 419 (0.71779 0.8455 0)
# Probe 420 (0.75631 0.8348 0)
# Probe 421 (0.27582 0.44608 0)
# Probe 422 (0.31464 0.49282 0)
# Probe 423 (0.44256 0.6239 0)
# Probe 424 (0.4561 0.6326 0)
# Probe 425 (0.13078 0.60643 0)
# Probe 426 (0.14297 0.57231 0)
# Probe 427 (0.45275 0.65214 0)
# Probe 428 (0.46923 0.64619 0)
# Probe 429 (0.47318 0.62932 0)
# Probe 430 (0.48552 0.64075 0)
# Probe 431 (0.48902 0.62451 0)
# Probe 432 (0.50117 0.63517 0)
# Probe 433 (0.7777 0.14662 0)
# Probe 434 (0.62744 0.73367 0)
# Probe 435 (0.79355 0.41412 0)
# Probe 436 (0.82589 0.40308 0)
# Probe 437 (0.8176 0.43791 0)
# Probe 438 (0.63608 0.15102 0)
# Probe 439 (0.60827 0.12711 0)
# Probe 440 (0.33632 0.55508 0)
# Probe 441 (0.34795 0.56865 0)
# Probe 442 (0.50422 0.61919 0)
# Probe 443 (0.51648 0.62979 0)
# Probe 444 (0.51969 0.61398 0)
# Probe 445 (0.53175 0.62447 0)
# Probe 446 (0.53496 0.6086 0)
# Probe 447 (0.5471 0.61918 0)
# Probe 448 (0.54943 0.60396 0)
# Probe 449 (0.56239 0.61339 0)
# Probe 450 (0.56346 0.59607 0)
# Probe 451 (0.57734 0.60719 0)
# Probe 452 (0.581 0.59112 0)
# Probe 453 (0.36446 0.61001 0)
# Probe 454 (0.34972 0.81334 0)
# Probe 455 (0.33697 0.84716 0)
# Probe 456 (0.31315 0.821 0)
# Probe 457 (0.66142 0.17457 0)
# Probe 458 (0.32224 0.594 0)
# Probe 459 (0.11694 0.35346 0)
# Probe 460 (0.14246 0.66817 0)
# Probe 461 (0.16863 0.69645 0)
# Probe 462 (0.13024 0.70435 0)
# Probe 463 (0.15702 0.73344 0)
# Probe 464 (0.23863 0.27115 0)
# Probe 465 (0.23986 0.23815 0)
# Probe 466 (0.2086 0.25495 0)
# Probe 467 (0.21042 0.2188 0)
# Probe 468 (0.24414 0.20265 0)
# Probe 469 (0.17693 0.23666 0)
# Probe 470 (0.17895 0.19767 0)
# Probe 471 (0.4391 0.81932 0)
# Probe 472 (0.67955 0.85585 0)
# Probe 473 (0.65151 0.82813 0)
# Probe 474 (0.64129 0.86556 0)
# Probe 475 (0.61638 0.83847 0)
# Probe 476 (0.32268 0.53778 0)
# Probe 477 (0.6038 0.87559 0)
# Probe 478 (0.57705 0.8422 0)
# Probe 479 (0.7468 0.8748 0)
# Probe 480 (0.78726 0.86305 0)
# Probe 481 (0.43038 0.85335 0)
# Probe 482 (0.46543 0.84276 0)
# Probe 483 (0.30043 0.8569 0)
# Probe 484 (0.27321 0.82904 0)
# Probe 485 (0.31158 0.40741 0)
# Probe 486 (0.33013 0.40546 0)
# Probe 487 (0.85219 0.42721 0)
# Probe 488 (0.84318 0.46224 0)
# Probe 489 (0.262 0.86732 0)
# Probe 490 (0.23351 0.83798 0)
# Probe 491 (0.66997 0.14013 0)
# Probe 492 (0.56166 0.62793 0)
# Probe 493 (0.36229 0.87308 0)
# Probe 494 (0.14509 0.21587 0)
# Probe 495 (0.14668 0.17501 0)
# Probe 496 (0.18255 0.1567 0)
# Probe 497 (0.1436 0.25597 0)
# Probe 498 (0.49704 0.65295 0)
# Probe 499 (0.34202 0.41679 0)
# Probe 500 (0.34713 0.40226 0)
# Probe 501 (0.33695 0.38912 0)
# Probe 502 (0.35293 0.38767 0)
# Probe 503 (0.34398 0.37357 0)
# Probe 504 (0.36234 0.37387 0)
# Probe 505 (0.36821 0.63958 0)
# Probe 506 (0.29148 0.40975 0)
# Probe 507 (0.35102 0.35731 0)
# Probe 508 (0.36893 0.35605 0)
# Probe 509 (0.32626 0.45458 0)
# Probe 510 (0.11715 0.74236 0)
# Probe 511 (0.14511 0.77253 0)
# Probe 512 (0.38017 0.36976 0)
# Probe 513 (0.38702 0.35427 0)
# Probe 514 (0.37655 0.3395 0)
# Probe 515 (0.39449 0.33901 0)
# Probe 516 (0.40403 0.35316 0)
# Probe 517 (0.41158 0.3387 0)
# Probe 518 (0.22689 0.55319 0)
# Probe 519 (0.20853 0.53168 0)
# Probe 520 (0.56877 0.58059 0)
# Probe 521 (0.58435 0.5745 0)
# Probe 522 (0.59744 0.58542 0)
# Probe 523 (0.59946 0.56859 0)
# Probe 524 (0.58694 0.55844 0)
# Probe 525 (0.60126 0.55238 0)
# Probe 526 (0.18794 0.76742 0)
# Probe 527 (0.43229 0.61297 0)
# Probe 528 (0.14766 0.13125 0)
# Probe 529 (0.35293 0.55268 0)
# Probe 530 (0.40126 0.60216 0)
# Probe 531 (0.61349 0.57896 0)
# Probe 532 (0.52892 0.6408 0)
# Probe 533 (0.36372 0.56478 0)
# Probe 534 (0.75362 0.30054 0)
# Probe 535 (0.86084 0.26535 0)
# Probe 536 (0.87008 0.22645 0)
# Probe 537 (0.43459 0.68287 0)
# Probe 538 (0.45672 0.87917 0)
# Probe 539 (0.49537 0.86847 0)
# Probe 540 (0.39133 0.59112 0)
# Probe 541 (0.4207 0.35225 0)
# Probe 542 (0.42874 0.33839 0)
# Probe 543 (0.41962 0.32363 0)
# Probe 544 (0.43695 0.3239 0)
# Probe 545 (0.44556 0.33852 0)
# Probe 546 (0.45394 0.3244 0)
# Probe 547 (0.46164 0.3388 0)
# Probe 548 (0.47043 0.32514 0)
# Probe 549 (0.47788 0.3392 0)
# Probe 550 (0.48661 0.32544 0)
# Probe 551 (0.49452 0.33971 0)
# Probe 552 (0.50301 0.32583 0)
# Probe 553 (0.51107 0.34035 0)
# Probe 554 (0.51576 0.38155 0)
# Probe 555 (0.51973 0.3261 0)
# Probe 556 (0.52785 0.34106 0)
# Probe 557 (0.46288 0.31229 0)
# Probe 558 (0.42828 0.30777 0)
# Probe 559 (0.4952 0.31162 0)
# Probe 560 (0.33227 0.35876 0)
# Probe 561 (0.8081 0.47162 0)
# Probe 562 (0.83269 0.49804 0)
# Probe 563 (0.86957 0.48783 0)
# Probe 564 (0.85935 0.52385 0)
# Probe 565 (0.82253 0.5335 0)
# Probe 566 (0.8486 0.55932 0)
# Probe 567 (0.81287 0.56847 0)
# Probe 568 (0.83828 0.59477 0)
# Probe 569 (0.80251 0.60372 0)
# Probe 570 (0.82758 0.62994 0)
# Probe 571 (0.86496 0.62182 0)
# Probe 572 (0.85376 0.65907 0)
# Probe 573 (0.8926 0.64848 0)
# Probe 574 (0.8839 0.68943 0)
# Probe 575 (0.84181 0.69769 0)
# Probe 576 (0.86442 0.72961 0)
# Probe 577 (0.89721 0.51444 0)
# Probe 578 (0.58727 0.54109 0)
# Probe 579 (0.60253 0.53625 0)
# Probe 580 (0.61498 0.54547 0)
# Probe 581 (0.6164 0.5299 0)
# Probe 582 (0.60395 0.52086 0)
# Probe 583 (0.61789 0.51427 0)
# Probe 584 (0.63103 0.5232 0)
# Probe 585 (0.60516 0.50589 0)
# Probe 586 (0.61881 0.49898 0)
# Probe 587 (0.60622 0.49077 0)
# Probe 588 (0.61975 0.48383 0)
# Probe 589 (0.6072 0.47526 0)
# Probe 590 (0.6206 0.46863 0)
# Probe 591 (0.60803 0.45989 0)
# Probe 592 (0.62187 0.45312 0)
# Probe 593 (0.60875 0.44422 0)
# Probe 594 (0.62319 0.43719 0)
# Probe 595 (0.60946 0.42792 0)
# Probe 596 (0.63236 0.46129 0)
# Probe 597 (0.62464 0.42032 0)
# Probe 598 (0.61025 0.41125 0)
# Probe 599 (0.5957 0.41932 0)
# Probe 600 (0.59405 0.40418 0)
# Probe 601 (0.61073 0.39452 0)
# Probe 602 (0.5958 0.38617 0)
# Probe 603 (0.58092 0.39387 0)
# Probe 604 (0.58164 0.37772 0)
# Probe 605 (0.56751 0.38533 0)
# Probe 606 (0.56757 0.36968 0)
# Probe 607 (0.63973 0.43098 0)
# Probe 608 (0.79185 0.63799 0)
# Probe 609 (0.53695 0.32634 0)
# Probe 610 (0.54606 0.33963 0)
# Probe 611 (0.53791 0.35524 0)
# Probe 612 (0.44496 0.60971 0)
# Probe 613 (0.63303 0.49206 0)
# Probe 614 (0.41486 0.36664 0)
# Probe 615 (0.78776 0.5441 0)
# Probe 616 (0.49302 0.60926 0)
# Probe 617 (0.81763 0.13169 0)
# Probe 618 (0.22161 0.87823 0)
# Probe 619 (0.19279 0.84515 0)
# Probe 620 (0.21911 0.50484 0)
# Probe 621 (0.19016 0.5089 0)
# Probe 622 (0.20073 0.48203 0)
# Probe 623 (0.1056 0.57606 0)
# Probe 624 (0.12175 0.54188 0)
# Probe 625 (0.61139 0.37686 0)
# Probe 626 (0.57472 0.54968 0)
# Probe 627 (0.3637 0.40094 0)
# Probe 628 (0.53703 0.59448 0)
# Probe 629 (0.46586 0.66453 0)
# Probe 630 (0.28974 0.78757 0)
# Probe 631 (0.73532 0.20382 0)
# Probe 632 (0.72747 0.23934 0)
# Probe 633 (0.38432 0.32333 0)
# Probe 634 (0.55179 0.37878 0)
# Probe 635 (0.79669 0.82245 0)
# Probe 636 (0.82866 0.85069 0)
# Probe 637 (0.83877 0.80861 0)
# Probe 638 (0.56539 0.88505 0)
# Probe 639 (0.50308 0.82567 0)
# Probe 640 (0.52926 0.31046 0)
# Probe 641 (0.58195 0.36077 0)
# Probe 642 (0.65102 0.20758 0)
# Probe 643 (0.48571 0.35397 0)
# Probe 644 (0.87116 0.83812 0)
# Probe 645 (0.86125 0.88138 0)
# Probe 646 (0.59161 0.9168 0)
# Probe 647 (0.84965 0.15937 0)
# Probe 648 (0.85927 0.11602 0)
# Probe 649 (0.54386 0.18539 0)
# Probe 650 (0.54645 0.15214 0)
# Probe 651 (0.51352 0.17022 0)
# Probe 652 (0.52014 0.13139 0)
# Probe 653 (0.4856 0.14322 0)
# Probe 654 (0.49458 0.10879 0)
# Probe 655 (0.45716 0.11956 0)
# Probe 656 (0.45171 0.15553 0)
# Probe 657 (0.4224 0.13292 0)
# Probe 658 (0.64114 0.41222 0)
# Probe 659 (0.59107 0.51195 0)
# Probe 660 (0.11163 0.23304 0)
# Probe 661 (0.7687 0.61242 0)
# Probe 662 (0.59387 0.48242 0)
# Probe 663 (0.62791 0.8028 0)
# Probe 664 (0.09307 0.61457 0)
# Probe 665 (0.78472 0.10571 0)
# Probe 666 (0.74455 0.11857 0)
# Probe 667 (0.55493 0.3953 0)
# Probe 668 (0.8596 0.39266 0)
# Probe 669 (0.59589 0.45142 0)
# Probe 670 (0.36815 0.5493 0)
# Probe 671 (0.45316 0.35159 0)
# Probe 672 (0.41913 0.88757 0)
# Probe 673 (0.10998 0.27564 0)
# Probe 674 (0.75863 0.64505 0)
# Probe 675 (0.61115 0.59687 0)
# Probe 676 (0.55105 0.11911 0)
# Probe 677 (0.87963 0.79714 0)
# Probe 678 (0.1866 0.11354 0)
# Probe 679 (0.22103 0.13821 0)
# Probe 680 (0.35979 0.58012 0)
# Probe 681 (0.4102 0.30795 0)
# Probe 682 (0.90745 0.47672 0)
# Probe 683 (0.75542 0.0782 0)
# Probe 684 (0.88847 0.41591 0)
# Probe 685 (0.89095 0.3765 0)
# Probe 686 (0.22571 0.09515 0)
# Probe 687 (0.25877 0.12539 0)
# Probe 688 (0.40419 0.58831 0)
# Probe 689 (0.41404 0.59673 0)
# Probe 690 (0.41994 0.29313 0)
# Probe 691 (0.43762 0.29033 0)
# Probe 692 (0.10517 0.78306 0)
# Probe 693 (0.12851 0.81681 0)
# Probe 694 (0.07693 0.75376 0)
# Probe 695 (0.06706 0.58474 0)
# Probe 696 (0.35912 0.53918 0)
# Probe 697 (0.29948 0.39266 0)
# Probe 698 (0.27836 0.39346 0)
# Probe 699 (0.2702 0.41391 0)
# Probe 700 (0.82799 0.73729 0)
# Probe 701 (0.19989 0.56164 0)
# Probe 702 (0.90724 0.87121 0)
# Probe 703 (0.17917 0.88743 0)
# Probe 704 (0.3403 0.34202 0)
# Probe 705 (0.77654 0.9038 0)
# Probe 706 (0.73578 0.91499 0)
# Probe 707 (0.48428 0.90604 0)
# Probe 708 (0.34244 0.75935 0)
# Probe 709 (0.11137 0.15033 0)
# Probe 710 (0.11437 0.10273 0)
# Probe 711 (0.6568 0.42361 0)
# Probe 712 (0.88938 0.14669 0)
# Probe 713 (0.65869 0.40214 0)
# Probe 714 (0.28898 0.89339 0)
# Probe 715 (0.90178 0.61204 0)
# Probe 716 (0.16991 0.48362 0)
# Probe 717 (0.67687 0.41404 0)
# Probe 718 (0.92815 0.63693 0)
# Probe 719 (0.10611 0.67645 0)
# Probe 720 (0.66876 0.89243 0)
# Probe 721 (0.36627 0.32459 0)
# Probe 722 (0.32218 0.34215 0)
# Probe 723 (0.41705 0.16924 0)
# Probe 724 (0.38817 0.14655 0)
# Probe 725 (0.39255 0.1098 0)
# Probe 726 (0.35715 0.12454 0)
# Probe 727 (0.3633 0.0848 0)
# Probe 728 (0.32587 0.10082 0)
# Probe 729 (0.322 0.14112 0)
# Probe 730 (0.5676 0.35391 0)
# Probe 731 (0.58181 0.34021 0)
# Probe 732 (0.59437 0.49765 0)
# Probe 733 (0.55518 0.32596 0)
# Probe 734 (0.7138 0.0909 0)
# Probe 735 (0.65732 0.44742 0)
# Probe 736 (0.37493 0.57492 0)
# Probe 737 (0.93453 0.50405 0)
# Probe 738 (0.33711 0.05614 0)
# Probe 739 (0.80209 0.70564 0)
# Probe 740 (0.69942 0.16451 0)
# Probe 741 (0.89912 0.25811 0)
# Probe 742 (0.88639 0.29328 0)
# Probe 743 (0.32237 0.47292 0)
# Probe 744 (0.33204 0.4891 0)
# Probe 745 (0.32645 0.50514 0)
# Probe 746 (0.33898 0.47532 0)
# Probe 747 (0.34402 0.50199 0)
# Probe 748 (0.33765 0.51567 0)
# Probe 749 (0.15135 0.29828 0)
# Probe 750 (0.37126 0.30801 0)
# Probe 751 (0.33328 0.43941 0)
# Probe 752 (0.34287 0.45168 0)
# Probe 753 (0.34796 0.43787 0)
# Probe 754 (0.43571 0.59989 0)
# Probe 755 (0.46895 0.35339 0)
# Probe 756 (0.15184 0.51622 0)
# Probe 757 (0.13829 0.48768 0)
# Probe 758 (0.21858 0.58207 0)
# Probe 759 (0.70256 0.21924 0)
# Probe 760 (0.6958 0.25232 0)
# Probe 761 (0.72134 0.27467 0)
# Probe 762 (0.39706 0.36744 0)
# Probe 763 (0.39025 0.38124 0)
# Probe 764 (0.37625 0.38425 0)
# Probe 765 (0.9164 0.21411 0)
# Probe 766 (0.47685 0.36417 0)
# Probe 767 (0.91061 0.10317 0)
# Probe 768 (0.20922 0.28883 0)
# Probe 769 (0.56781 0.40053 0)
# Probe 770 (0.57845 0.40858 0)
# Probe 771 (0.58062 0.42388 0)
# Probe 772 (0.67335 0.46578 0)
# Probe 773 (0.65547 0.47576 0)
# Probe 774 (0.56782 0.67342 0)
# Probe 775 (0.54793 0.66415 0)
# Probe 776 (0.5287 0.66317 0)
# Probe 777 (0.52064 0.68801 0)
# Probe 778 (0.58104 0.6536 0)
# Probe 779 (0.60131 0.64523 0)
# Probe 780 (0.5727 0.56348 0)
# Probe 781 (0.55885 0.56921 0)
# Probe 782 (0.55385 0.58138 0)
# Probe 783 (0.43715 0.35416 0)
# Probe 784 (0.44692 0.36428 0)
# Probe 785 (0.32267 0.5206 0)
# Probe 786 (0.29956 0.63546 0)
# Probe 787 (0.32672 0.62966 0)
# Probe 788 (0.34481 0.64911 0)
# Probe 789 (0.59655 0.46678 0)
# Probe 790 (0.53532 0.85608 0)
# Probe 791 (0.54318 0.81776 0)
# Probe 792 (0.57514 0.80319 0)
# Probe 793 (0.5477 0.78394 0)
# Probe 794 (0.46697 0.08157 0)
# Probe 795 (0.55368 0.28801 0)
# Probe 796 (0.04421 0.38098 0)
# Probe 797 (0.04651 0.3318 0)
# Probe 798 (0.63192 0.35409 0)
# Probe 799 (0.07861 0.49311 0)
# Probe 800 (0.59084 0.5262 0)
# Probe 801 (0.4776 0.61151 0)
# Probe 802 (0.46411 0.61706 0)
# Probe 803 (0.46655 0.60331 0)
# Probe 804 (0.508 0.60239 0)
# Probe 805 (0.49519 0.59588 0)
# Probe 806 (0.52342 0.59886 0)
# Probe 807 (0.52595 0.58569 0)
# Probe 808 (0.58044 0.51948 0)
# Probe 809 (0.20976 0.40509 0)
# Probe 810 (0.23994 0.41677 0)
# Probe 811 (0.21094 0.43454 0)
# Probe 812 (0.23668 0.4477 0)
# Probe 813 (0.35163 0.62605 0)
# Probe 814 (0.36257 0.66368 0)
# Probe 815 (0.33897 0.67378 0)
# Probe 816 (0.34734 0.48717 0)
# Probe 817 (0.35191 0.47488 0)
# Probe 818 (0.07003 0.12822 0)
# Probe 819 (0.35618 0.49684 0)
# Probe 820 (0.04502 0.62337 0)
# Probe 821 (0.18202 0.42341 0)
# Probe 822 (0.4833 0.59899 0)
# Probe 823 (0.37792 0.561 0)
# Probe 824 (0.38657 0.57112 0)
# Probe 825 (0.59312 0.43532 0)
# Probe 826 (0.7789 0.578 0)
# Probe 827 (0.74499 0.58687 0)
# Probe 828 (0.75986 0.55516 0)
# Probe 829 (0.76134 0.52191 0)
# Probe 830 (0.7928 0.50706 0)
# Probe 831 (0.41527 0.61337 0)
# Probe 832 (0.53877 0.58037 0)
# Probe 833 (0.62277 0.66069 0)
# Probe 834 (0.62253 0.63667 0)
# Probe 835 (0.60193 0.62184 0)
# Probe 836 (0.42711 0.36302 0)
# Probe 837 (0.34265 0.53838 0)
# Probe 838 (0.66793 0.51421 0)
# Probe 839 (0.65969 0.53652 0)
# Probe 840 (0.64143 0.5477 0)
# Probe 841 (0.63351 0.56652 0)
# Probe 842 (0.64969 0.58412 0)
# Probe 843 (0.40538 0.38042 0)
# Probe 844 (0.41822 0.37815 0)
# Probe 845 (0.30141 0.54093 0)
# Probe 846 (0.43251 0.70847 0)
# Probe 847 (0.45153 0.69645 0)
# Probe 848 (0.58832 0.31953 0)
# Probe 849 (0.51961 0.35449 0)
# Probe 850 (0.52646 0.36594 0)
# Probe 851 (0.51404 0.36851 0)
# Probe 852 (0.50305 0.35561 0)
# Probe 853 (0.35305 0.51327 0)
# Probe 854 (0.25241 0.16498 0)
# Probe 855 (0.2049 0.80651 0)
# Probe 856 (0.75663 0.26362 0)
# Probe 857 (0.72033 0.31024 0)
# Probe 858 (0.66303 0.7928 0)
# Probe 859 (0.74433 0.33377 0)
# Probe 860 (0.30582 0.61069 0)
# Probe 861 (0.36487 0.45367 0)
# Probe 862 (0.62731 0.38629 0)
# Probe 863 (0.26415 0.37271 0)
# Probe 864 (0.37187 0.43343 0)
# Probe 865 (0.36526 0.42421 0)
# Probe 866 (0.37072 0.41388 0)
# Probe 867 (0.51622 0.57872 0)
# Probe 868 (0.45426 0.5876 0)
# Probe 869 (0.4778 0.9523 0)
# Probe 870 (0.58039 0.48414 0)
# Probe 871 (0.57456 0.50566 0)
# Probe 872 (0.55054 0.40722 0)
# Probe 873 (0.56264 0.42449 0)
# Probe 874 (0.46562 0.59047 0)
# Probe 875 (0.48658 0.58764 0)
# Probe 876 (0.56317 0.5356 0)
# Probe 877 (0.57374 0.53748 0)
# Probe 878 (0.57825 0.47468 0)
# Probe 879 (0.57575 0.45394 0)
# Probe 880 (0.58359 0.44617 0)
# Probe 881 (0.54268 0.56014 0)
# Probe 882 (0.5569 0.54457 0)
# Probe 883 (0.45419 0.37264 0)
# Probe 884 (0.4853 0.37176 0)
# Probe 885 (0.54278 0.3997 0)
# Probe 886 (0.52568 0.38718 0)
# Probe 887 (0.5364 0.38226 0)
# Probe 888 (0.39736 0.56003 0)
# Probe 889 (0.77317 0.95199 0)
# Probe 890 (0.56759 0.43388 0)
# Probe 891 (0.20475 0.91905 0)
# Probe 892 (0.36639 0.51635 0)
# Probe 893 (0.35918 0.52639 0)
# Probe 894 (0.39722 0.3997 0)
# Probe 895 (0.38593 0.39475 0)
# Probe 896 (0.43346 0.58175 0)
# Probe 897 (0.41454 0.57256 0)
# Probe 898 (0.31399 0.31895 0)
# Probe 899 (0.37649 0.53839 0)
# Probe 900 (0.65054 0.49761 0)
# Probe 901 (0.96091 0.22741 0)
# Probe 902 (0.04002 0.22535 0)
# Probe 903 (0.2256 0.04753 0)
# Probe 904 (0.78287 0.6708 0)
# Probe 905 (0.30945 0.36202 0)
# Probe 906 (0.52721 0.89508 0)
# Probe 907 (0.38431 0.54453 0)
# Probe 908 (0.77663 0.48183 0)
# Probe 909 (0.78361 0.44973 0)
# Probe 910 (0.56176 0.55517 0)
# Probe 911 (0.67548 0.75741 0)
# Probe 912 (0.22967 0.4776 0)
# Probe 913 (0.957 0.77552 0)
# Probe 914 (0.92317 0.74541 0)
# Probe 915 (0.5735 0.95841 0)
# Probe 916 (0.62513 0.95228 0)
# Probe 917 (0.47779 0.17939 0)
# Probe 918 (0.44804 0.19051 0)
# Probe 919 (0.37374 0.59119 0)
# Probe 920 (0.57439 0.04011 0)
# Probe 921 (0.62333 0.04092 0)
# Probe 922 (0.64816 0.07663 0)
# Probe 923 (0.59867 0.08277 0)
# Probe 924 (0.46554 0.26869 0)
# Probe 925 (0.48571 0.28211 0)
# Probe 926 (0.50751 0.27531 0)
# Probe 927 (0.37464 0.95904 0)
# Probe 928 (0.32965 0.96 0)
# Probe 929 (0.35598 0.91547 0)
# Probe 930 (0.95786 0.37488 0)
# Probe 931 (0.95965 0.32415 0)
# Probe 932 (0.46965 0.80777 0)
# Probe 933 (0.35322 0.16047 0)
# Probe 934 (0.31585 0.18003 0)
# Probe 935 (0.18613 0.45572 0)
# Probe 936 (0.49393 0.36432 0)
# Probe 937 (0.37824 0.04143 0)
# Probe 938 (0.19625 0.72569 0)
# Probe 939 (0.22397 0.75048 0)
# Probe 940 (0.23274 0.71565 0)
# Probe 941 (0.20326 0.68744 0)
# Probe 942 (0.31906 0.39139 0)
# Probe 943 (0.89451 0.91526 0)
# Probe 944 (0.94116 0.90164 0)
# Probe 945 (0.49637 0.20352 0)
# Probe 946 (0.12115 0.04981 0)
# Probe 947 (0.12834 0.95061 0)
# Probe 948 (0.9588 0.1246 0)
# Probe 949 (0.8686 0.07125 0)
# Probe 950 (0.2459 0.80008 0)
# Probe 951 (0.15062 0.85439 0)
# Probe 952 (0.13585 0.90085 0)
# Probe 953 (0.11099 0.86061 0)
# Probe 954 (0.04166 0.87794 0)
# Probe 955 (0.61967 0.21575 0)
# Probe 956 (0.31609 0.76315 0)
# Probe 957 (0.69214 0.28551 0)
# Probe 958 (0.66336 0.26439 0)
# Probe 959 (0.52646 0.57391 0)
# Probe 960 (0.51418 0.58987 0)
# Probe 961 (0.80635 0.77735 0)
# Probe 962 (0.50599 0.37746 0)
# Probe 963 (0.34281 0.58622 0)
# Probe 964 (0.34112 0.60767 0)
# Probe 965 (0.35665 0.41362 0)
# Probe 966 (0.08693 0.90397 0)
# Probe 967 (0.81666 0.66685 0)
# Probe 968 (0.5181 0.79208 0)
# Probe 969 (0.25946 0.76417 0)
# Probe 970 (0.58202 0.63236 0)
# Probe 971 (0.72366 0.68295 0)