# Probe 0 (0 0 0)
# Probe 1 (1 0 0)
# Probe 2 (1 1 0)
# Probe 3 (0 1 0)
# Probe 4 (0.72 0.48 0)
# Probe 5 (0.62 0.38 0)
# Probe 6 (0.52 0.48 0)
# Probe 7 (0.62 0.58 0)
# Probe 8 (0.05 0 0)
# Probe 9 (0.1 0 0)
# Probe 10 (0.15 0 0)
# Probe 11 (0.2 0 0)
# Probe 12 (0.25 0 0)
# Probe 13 (0.3 0 0)
# Probe 14 (0.35 0 0)
# Probe 15 (0.4 0 0)
# Probe 16 (0.45 0 0)
# Probe 17 (0.5 0 0)
# Probe 18 (0.55 0 0)
# Probe 19 (0.6 0 0)
# Probe 20 (0.65 0 0)
# Probe 21 (0.7 0 0)
# Probe 22 (0.75 0 0)
# Probe 23 (0.8 0 0)
# Probe 24 (0.85 0 0)
# Probe 25 (0.9 0 0)
# Probe 26 (0.95 0 0)
# Probe 27 (1 0.05 0)
# Probe 28 (1 0.1 0)
# Probe 29 (1 0.15 0)
# Probe 30 (1 0.2 0)
# Probe 31 (1 0.25 0)
# Probe 32 (1 0.3 0)
# Probe 33 (1 0.35 0)
# Probe 34 (1 0.4 0)
# Probe 35 (1 0.45 0)
# Probe 36 (1 0.5 0)
# Probe 37 (1 0.55 0)
# Probe 38 (1 0.6 0)
# Probe 39 (1 0.65 0)
# Probe 40 (1 0.7 0)
# Probe 41 (1 0.75 0)
# Probe 42 (1 0.8 0)
# Probe 43 (1 0.85 0)
# Probe 44 (1 0.9 0)
# Probe 45 (1 0.95 0)
# Probe 46 (0.95 1 0)
# Probe 47 (0.9 1 0)
# Probe 48 (0.85 1 0)
# Probe 49 (0.8 1 0)
# Probe 50 (0.75 1 0)
# Probe 51 (0.7 1 0)
# Probe 52 (0.65 1 0)
# Probe 53 (0.6 1 0)
# Probe 54 (0.55 1 0)
# Probe 55 (0.5 1 0)
# Probe 56 (0.45 1 0)
# Probe 57 (0.4 1 0)
# Probe 58 (0.35 1 0)
# Probe 59 (0.3 1 0)
# Probe 60 (0.25 1 0)
# Probe 61 (0.2 1 0)
# Probe 62 (0.15 1 0)
# Probe 63 (0.1 1 0)
# Probe 64 (0.05 1 0)
# Probe 65 (0 0.95 0)
# Probe 66 (0 0.9 0)
# Probe 67 (0 0.85 0)
# Probe 68 (0 0.8 0)
# Probe 69 (0 0.75 0)
# Probe 70 (0 0.7 0)
# Probe 71 (0 0.65 0)
# Probe 72 (0 0.6 0)
# Probe 73 (0 0.55 0)
# Probe 74 (0 0.5 0)
# Probe 75 (0 0.45 0)
# Probe 76 (0 0.4 0)
# Probe 77 (0 0.35 0)
# Probe 78 (0 0.3 0)
# Probe 79 (0 0.25 0)
# Probe 80 (0 0.2 0)
# Probe 81 (0 0.15 0)
# Probe 82 (0 0.1 0)
# Probe 83 (0 0.05 0)
# Probe 84 (0.71952 0.4702 0)
# Probe 85 (0.71808 0.46049 0)
# Probe 86 (0.71569 0.45097 0)
# Probe 87 (0.71239 0.44173 0)
# Probe 88 (0.70819 0.43286 0)
# Probe 89 (0.70315 0.42444 0)
# Probe 90 (0.6973 0.41656 0)
# Probe 91 (0.69071 0.40929 0)
# Probe 92 (0.68344 0.4027 0)
# Probe 93 (0.67556 0.39685 0)
# Probe 94 (0.66714 0.39181 0)
# Probe 95 (0.65827 0.38761 0)
# Probe 96 (0.64903 0.38431 0)
# Probe 97 (0.63951 0.38192 0)
# Probe 98 (0.6298 0.38048 0)
# Probe 99 (0.6102 0.38048 0)
# Probe 100 (0.60049 0.38192 0)
# Probe 101 (0.59097 0.38431 0)
# Probe 102 (0.58173 0.38761 0)
# Probe 103 (0.57286 0.39181 0)
# Probe 104 (0.56444 0.39685 0)
# Probe 105 (0.55656 0.4027 0)
# Probe 106 (0.54929 0.40929 0)
# Probe 107 (0.5427 0.41656 0)
# Probe 108 (0.53685 0.42444 0)
# Probe 109 (0.53181 0.43286 0)
# Probe 110 (0.52761 0.44173 0)
# Probe 111 (0.52431 0.45097 0)
# Probe 112 (0.52192 0.46049 0)
# Probe 113 (0.52048 0.4702 0)
# Probe 114 (0.52048 0.4898 0)
# Probe 115 (0.52192 0.49951 0)
# Probe 116 (0.52431 0.50903 0)
# Probe 117 (0.52761 0.51827 0)
# Probe 118 (0.53181 0.52714 0)
# Probe 119 (0.53685 0.53556 0)
# Probe 120 (0.5427 0.54344 0)
# Probe 121 (0.54929 0.55071 0)
# Probe 122 (0.55656 0.5573 0)
# Probe 123 (0.56444 0.56315 0)
# Probe 124 (0.57286 0.56819 0)
# Probe 125 (0.58173 0.57239 0)
# Probe 126 (0.59097 0.57569 0)
# Probe 127 (0.60049 0.57808 0)
# Probe 128 (0.6102 0.57952 0)
# Probe 129 (0.6298 0.57952 0)
# Probe 130 (0.63951 0.57808 0)
# Probe 131 (0.64903 0.57569 0)
# Probe 132 (0.65827 0.57239 0)
# Probe 133 (0.66714 0.56819 0)
# Probe 134 (0.67556 0.56315 0)
# Probe 135 (0.68344 0.5573 0)
# Probe 136 (0.69071 0.55071 0)
# Probe 137 (0.6973 0.54344 0)
# Probe 138 (0.70315 0.53556 0)
# Probe 139 (0.70819 0.52714 0)
# Probe 140 (0.71239 0.51827 0)
# Probe 141 (0.71569 0.50903 0)
# Probe 142 (0.71808 0.49951 0)
# Probe 143 (0.71952 0.4898 0)
# Probe 144 (0.04425 0.67077 0)
# Probe 145 (0.32701 0.95784 0)
# Probe 146 (0.04056 0.33011 0)
# Probe 147 (0.32091 0.04366 0)
# Probe 148 (0.04547 0.52364 0)
# Probe 149 (0.48052 0.95643 0)
# Probe 150 (0.72251 0.95714 0)
# Probe 151 (0.77302 0.04176 0)
# Probe 152 (0.47317 0.04179 0)
# Probe 153 (0.95309 0.72216 0)
# Probe 154 (0.62221 0.04474 0)
# Probe 155 (0.95667 0.26602 0)
# Probe 156 (0.96206 0.57803 0)
# Probe 157 (0.95554 0.43066 0)
# Probe 158 (0.72909 0.48544 0)
# Probe 159 (0.04108 0.82337 0)
# Probe 160 (0.04112 0.1778 0)
# Probe 161 (0.16861 0.0427 0)
# Probe 162 (0.175 0.9567 0)
# Probe 163 (0.9592 0.17872 0)
# Probe 164 (0.95881 0.8272 0)
# Probe 165 (0.62715 0.95797 0)
# Probe 166 (0.82423 0.95085 0)
# Probe 167 (0.03895 0.42318 0)
# Probe 168 (0.87467 0.04327 0)
# Probe 169 (0.92483 0.95739 0)
# Probe 170 (0.0399 0.92785 0)
# Probe 171 (0.04071 0.07524 0)
# Probe 172 (0.96207 0.076 0)
# Probe 173 (0.67531 0.95829 0)
# Probe 174 (0.69904 0.91831 0)
# Probe 175 (0.74278 0.91614 0)
# Probe 176 (0.72026 0.88018 0)
# Probe 177 (0.76139 0.8782 0)
# Probe 178 (0.73963 0.84453 0)
# Probe 179 (0.70099 0.84635 0)
# Probe 180 (0.71937 0.81346 0)
# Probe 181 (0.68401 0.8146 0)
# Probe 182 (0.69972 0.78537 0)
# Probe 183 (0.64643 0.58524 0)
# Probe 184 (0.6678 0.78627 0)
# Probe 185 (0.68245 0.75861 0)
# Probe 186 (0.6525 0.75967 0)
# Probe 187 (0.6146 0.58837 0)
# Probe 188 (0.71156 0.75726 0)
# Probe 189 (0.69637 0.73216 0)
# Probe 190 (0.72361 0.73143 0)
# Probe 191 (0.70781 0.54545 0)
# Probe 192 (0.68431 0.56724 0)
# Probe 193 (0.63754 0.78612 0)
# Probe 194 (0.62319 0.76033 0)
# Probe 195 (0.709 0.70812 0)
# Probe 196 (0.73476 0.70741 0)
# Probe 197 (0.75201 0.7302 0)
# Probe 198 (0.76166 0.699 0)
# Probe 199 (0.60792 0.78594 0)
# Probe 200 (0.59375 0.76053 0)
# Probe 201 (0.60904 0.7383 0)
# Probe 202 (0.58095 0.73736 0)
# Probe 203 (0.58327 0.582 0)
# Probe 204 (0.56596 0.75955 0)
# Probe 205 (0.55467 0.73669 0)
# Probe 206 (0.5385 0.75871 0)
# Probe 207 (0.5282 0.7311 0)
# Probe 208 (0.50951 0.75905 0)
# Probe 209 (0.49718 0.73262 0)
# Probe 210 (0.48193 0.75706 0)
# Probe 211 (0.46858 0.73163 0)
# Probe 212 (0.48362 0.70782 0)
# Probe 213 (0.45588 0.70626 0)
# Probe 214 (0.54753 0.56012 0)
# Probe 215 (0.43954 0.73017 0)
# Probe 216 (0.42686 0.70379 0)
# Probe 217 (0.40949 0.72873 0)
# Probe 218 (0.39645 0.70103 0)
# Probe 219 (0.41766 0.67431 0)
# Probe 220 (0.38439 0.67311 0)
# Probe 221 (0.40101 0.64864 0)
# Probe 222 (0.52708 0.53503 0)
# Probe 223 (0.37142 0.6462 0)
# Probe 224 (0.38818 0.62276 0)
# Probe 225 (0.35941 0.61989 0)
# Probe 226 (0.37585 0.59682 0)
# Probe 227 (0.34748 0.59392 0)
# Probe 228 (0.36363 0.57085 0)
# Probe 229 (0.51249 0.49568 0)
# Probe 230 (0.33611 0.56854 0)
# Probe 231 (0.35155 0.54695 0)
# Probe 232 (0.35286 0.66959 0)
# Probe 233 (0.31872 0.59094 0)
# Probe 234 (0.32394 0.5448 0)
# Probe 235 (0.34489 0.52014 0)
# Probe 236 (0.31199 0.51878 0)
# Probe 237 (0.32984 0.4928 0)
# Probe 238 (0.29943 0.49035 0)
# Probe 239 (0.31678 0.46614 0)
# Probe 240 (0.34647 0.46845 0)
# Probe 241 (0.33467 0.44146 0)
# Probe 242 (0.51546 0.45244 0)
# Probe 243 (0.30418 0.43847 0)
# Probe 244 (0.32259 0.41422 0)
# Probe 245 (0.35256 0.41747 0)
# Probe 246 (0.34092 0.39056 0)
# Probe 247 (0.37019 0.39435 0)
# Probe 248 (0.52678 0.42369 0)
# Probe 249 (0.35903 0.36763 0)
# Probe 250 (0.33073 0.36167 0)
# Probe 251 (0.38691 0.37101 0)
# Probe 252 (0.37668 0.34529 0)
# Probe 253 (0.40395 0.34855 0)
# Probe 254 (0.39387 0.3231 0)
# Probe 255 (0.42126 0.32682 0)
# Probe 256 (0.54708 0.39973 0)
# Probe 257 (0.4109 0.30061 0)
# Probe 258 (0.43847 0.305 0)
# Probe 259 (0.38217 0.29661 0)
# Probe 260 (0.28084 0.51715 0)
# Probe 261 (0.38052 0.54904 0)
# Probe 262 (0.42849 0.27791 0)
# Probe 263 (0.45683 0.28211 0)
# Probe 264 (0.41563 0.62508 0)
# Probe 265 (0.57153 0.71815 0)
# Probe 266 (0.56408 0.57319 0)
# Probe 267 (0.51765 0.51656 0)
# Probe 268 (0.51198 0.47443 0)
# Probe 269 (0.66634 0.57885 0)
# Probe 270 (0.56499 0.38797 0)
# Probe 271 (0.39636 0.39821 0)
# Probe 272 (0.71823 0.52648 0)
# Probe 273 (0.71857 0.68605 0)
# Probe 274 (0.69586 0.68638 0)
# Probe 275 (0.44624 0.25435 0)
# Probe 276 (0.47663 0.25417 0)
# Probe 277 (0.48818 0.2881 0)
# Probe 278 (0.50478 0.26354 0)
# Probe 279 (0.59328 0.37439 0)
# Probe 280 (0.43107 0.35075 0)
# Probe 281 (0.51598 0.28784 0)
# Probe 282 (0.52946 0.26791 0)
# Probe 283 (0.52193 0.24249 0)
# Probe 284 (0.54942 0.25132 0)
# Probe 285 (0.53924 0.22023 0)
# Probe 286 (0.56773 0.22635 0)
# Probe 287 (0.57844 0.2532 0)
# Probe 288 (0.6254 0.37196 0)
# Probe 289 (0.5956 0.23187 0)
# Probe 290 (0.60482 0.25732 0)
# Probe 291 (0.62197 0.23738 0)
# Probe 292 (0.62989 0.26212 0)
# Probe 293 (0.64725 0.24307 0)
# Probe 294 (0.65496 0.26726 0)
# Probe 295 (0.67231 0.24837 0)
# Probe 296 (0.66633 0.38203 0)
# Probe 297 (0.68068 0.27276 0)
# Probe 298 (0.69832 0.25288 0)
# Probe 299 (0.70715 0.41593 0)
# Probe 300 (0.70648 0.2783 0)
# Probe 301 (0.72417 0.2586 0)
# Probe 302 (0.73203 0.28381 0)
# Probe 303 (0.75086 0.26381 0)
# Probe 304 (0.75935 0.29034 0)
# Probe 305 (0.68522 0.39255 0)
# Probe 306 (0.6462 0.37334 0)
# Probe 307 (0.71831 0.43372 0)
# Probe 308 (0.72503 0.4537 0)
# Probe 309 (0.69063 0.22585 0)
# Probe 310 (0.70533 0.66567 0)
# Probe 311 (0.68403 0.66664 0)
# Probe 312 (0.7793 0.26899 0)
# Probe 313 (0.78861 0.29752 0)
# Probe 314 (0.76934 0.24026 0)
# Probe 315 (0.78214 0.72759 0)
# Probe 316 (0.79578 0.69749 0)
# Probe 317 (0.53718 0.29206 0)
# Probe 318 (0.52026 0.78702 0)
# Probe 319 (0.76561 0.32035 0)
# Probe 320 (0.79669 0.32626 0)
# Probe 321 (0.52601 0.30948 0)
# Probe 322 (0.77778 0.34798 0)
# Probe 323 (0.80473 0.35365 0)
# Probe 324 (0.61345 0.27996 0)
# Probe 325 (0.61541 0.21121 0)
# Probe 326 (0.78473 0.37754 0)
# Probe 327 (0.8121 0.38053 0)
# Probe 328 (0.79539 0.40165 0)
# Probe 329 (0.81992 0.40593 0)
# Probe 330 (0.80056 0.42678 0)
# Probe 331 (0.82683 0.43062 0)
# Probe 332 (0.81029 0.45105 0)
# Probe 333 (0.83485 0.45577 0)
# Probe 334 (0.81636 0.47481 0)
# Probe 335 (0.7136 0.30662 0)
# Probe 336 (0.55813 0.19692 0)
# Probe 337 (0.52753 0.19114 0)
# Probe 338 (0.69319 0.64745 0)
# Probe 339 (0.71367 0.64573 0)
# Probe 340 (0.67298 0.6496 0)
# Probe 341 (0.66282 0.28925 0)
# Probe 342 (0.80126 0.24544 0)
# Probe 343 (0.78867 0.21327 0)
# Probe 344 (0.83129 0.36156 0)
# Probe 345 (0.54611 0.31313 0)
# Probe 346 (0.37828 0.72696 0)
# Probe 347 (0.39262 0.75597 0)
# Probe 348 (0.3586 0.75404 0)
# Probe 349 (0.37561 0.78551 0)
# Probe 350 (0.33923 0.78358 0)
# Probe 351 (0.84316 0.48172 0)
# Probe 352 (0.82379 0.50069 0)
# Probe 353 (0.29158 0.41003 0)
# Probe 354 (0.32306 0.75095 0)
# Probe 355 (0.30266 0.78186 0)
# Probe 356 (0.28598 0.74722 0)
# Probe 357 (0.2647 0.77987 0)
# Probe 358 (0.24741 0.74363 0)
# Probe 359 (0.22505 0.77696 0)
# Probe 360 (0.66416 0.66689 0)
# Probe 361 (0.65334 0.64763 0)
# Probe 362 (0.53408 0.32836 0)
# Probe 363 (0.20785 0.74058 0)
# Probe 364 (0.23047 0.70742 0)
# Probe 365 (0.27245 0.43519 0)
# Probe 366 (0.25913 0.40488 0)
# Probe 367 (0.23875 0.43221 0)
# Probe 368 (0.22466 0.40086 0)
# Probe 369 (0.24609 0.37243 0)
# Probe 370 (0.21017 0.36799 0)
# Probe 371 (0.23348 0.33814 0)
# Probe 372 (0.20373 0.42962 0)
# Probe 373 (0.19536 0.33361 0)
# Probe 374 (0.21964 0.30249 0)
# Probe 375 (0.17974 0.29775 0)
# Probe 376 (0.20412 0.26617 0)
# Probe 377 (0.24373 0.27214 0)
# Probe 378 (0.22879 0.23475 0)
# Probe 379 (0.26812 0.24069 0)
# Probe 380 (0.25391 0.20266 0)
# Probe 381 (0.29226 0.20984 0)
# Probe 382 (0.7791 0.84309 0)
# Probe 383 (0.2131 0.19664 0)
# Probe 384 (0.5481 0.16592 0)
# Probe 385 (0.70177 0.6298 0)
# Probe 386 (0.72158 0.6275 0)
# Probe 387 (0.64487 0.66643 0)
# Probe 388 (0.63511 0.65066 0)
# Probe 389 (0.81531 0.7258 0)
# Probe 390 (0.82939 0.69514 0)
# Probe 391 (0.80975 0.6672 0)
# Probe 392 (0.51127 0.32502 0)
# Probe 393 (0.52454 0.34538 0)
# Probe 394 (0.81895 0.30541 0)
# Probe 395 (0.62233 0.81258 0)
# Probe 396 (0.41595 0.24999 0)
# Probe 397 (0.43427 0.22453 0)
# Probe 398 (0.75926 0.37098 0)
# Probe 399 (0.84335 0.66412 0)
# Probe 400 (0.82229 0.63601 0)
# Probe 401 (0.24304 0.81384 0)
# Probe 402 (0.84224 0.41336 0)
# Probe 403 (0.19106 0.70406 0)
# Probe 404 (0.21382 0.67175 0)
# Probe 405 (0.20149 0.81102 0)
# Probe 406 (0.55383 0.33055 0)
# Probe 407 (0.79914 0.49462 0)
# Probe 408 (0.80538 0.51825 0)
# Probe 409 (0.83042 0.52451 0)
# Probe 410 (0.35551 0.81619 0)
# Probe 411 (0.39338 0.81771 0)
# Probe 412 (0.47136 0.68372 0)
# Probe 413 (0.49697 0.68514 0)
# Probe 414 (0.48547 0.66233 0)
# Probe 415 (0.50861 0.66347 0)
# Probe 416 (0.49926 0.6437 0)
# Probe 417 (0.51984 0.6443 0)
# Probe 418 (0.51099 0.6268 0)
# Probe 419 (0.53024 0.62712 0)
# Probe 420 (0.53909 0.64403 0)
# Probe 421 (0.54883 0.62815 0)
# Probe 422 (0.55748 0.64284 0)
# Probe 423 (0.52162 0.6113 0)
# Probe 424 (0.50334 0.61006 0)
# Probe 425 (0.51338 0.59563 0)
# Probe 426 (0.49629 0.59403 0)
# Probe 427 (0.56649 0.62824 0)
# Probe 428 (0.57566 0.64066 0)
# Probe 429 (0.58434 0.62596 0)
# Probe 430 (0.6262 0.66714 0)
# Probe 431 (0.50585 0.58036 0)
# Probe 432 (0.48931 0.57878 0)
# Probe 433 (0.77909 0.51304 0)
# Probe 434 (0.78787 0.53457 0)
# Probe 435 (0.72523 0.50646 0)
# Probe 436 (0.66418 0.63395 0)
# Probe 437 (0.17423 0.66804 0)
# Probe 438 (0.19711 0.63577 0)
# Probe 439 (0.15762 0.63185 0)
# Probe 440 (0.1807 0.59972 0)
# Probe 441 (0.51472 0.16029 0)
# Probe 442 (0.82418 0.21975 0)
# Probe 443 (0.81229 0.18559 0)
# Probe 444 (0.77485 0.17942 0)
# Probe 445 (0.1674 0.73663 0)
# Probe 446 (0.23943 0.16342 0)
# Probe 447 (0.50249 0.34454 0)
# Probe 448 (0.51074 0.36185 0)
# Probe 449 (0.4858 0.6079 0)
# Probe 450 (0.71029 0.61209 0)
# Probe 451 (0.72934 0.6098 0)
# Probe 452 (0.17469 0.36336 0)
# Probe 453 (0.40114 0.22047 0)
# Probe 454 (0.42299 0.19197 0)
# Probe 455 (0.78106 0.41726 0)
# Probe 456 (0.16326 0.26105 0)
# Probe 457 (0.49874 0.56506 0)
# Probe 458 (0.48243 0.56285 0)
# Probe 459 (0.47261 0.57733 0)
# Probe 460 (0.4656 0.5614 0)
# Probe 461 (0.47567 0.54708 0)
# Probe 462 (0.45852 0.54554 0)
# Probe 463 (0.46876 0.53163 0)
# Probe 464 (0.45185 0.52973 0)
# Probe 465 (0.46207 0.51567 0)
# Probe 466 (0.44476 0.51362 0)
# Probe 467 (0.45535 0.49968 0)
# Probe 468 (0.43779 0.49727 0)
# Probe 469 (0.44856 0.4829 0)
# Probe 470 (0.43054 0.48062 0)
# Probe 471 (0.44161 0.4655 0)
# Probe 472 (0.44838 0.56111 0)
# Probe 473 (0.45945 0.46828 0)
# Probe 474 (0.45305 0.45131 0)
# Probe 475 (0.424 0.46284 0)
# Probe 476 (0.53686 0.13291 0)
# Probe 477 (0.42066 0.49653 0)
# Probe 478 (0.71581 0.59355 0)
# Probe 479 (0.73667 0.59224 0)
# Probe 480 (0.65456 0.68354 0)
# Probe 481 (0.38654 0.18766 0)
# Probe 482 (0.41019 0.15745 0)
# Probe 483 (0.57071 0.13945 0)
# Probe 484 (0.49205 0.36008 0)
# Probe 485 (0.49994 0.37641 0)
# Probe 486 (0.48188 0.37516 0)
# Probe 487 (0.48998 0.39104 0)
# Probe 488 (0.47161 0.38984 0)
# Probe 489 (0.47014 0.45435 0)
# Probe 490 (0.74286 0.62458 0)
# Probe 491 (0.37126 0.15281 0)
# Probe 492 (0.7763 0.49106 0)
# Probe 493 (0.85679 0.63278 0)
# Probe 494 (0.21766 0.46568 0)
# Probe 495 (0.18169 0.45936 0)
# Probe 496 (0.53077 0.59683 0)
# Probe 497 (0.5657 0.31676 0)
# Probe 498 (0.57215 0.33455 0)
# Probe 499 (0.37267 0.84941 0)
# Probe 500 (0.41067 0.8508 0)
# Probe 501 (0.25305 0.67511 0)
# Probe 502 (0.33587 0.84761 0)
# Probe 503 (0.5287 0.36487 0)
# Probe 504 (0.21913 0.60362 0)
# Probe 505 (0.47407 0.50202 0)
# Probe 506 (0.19714 0.15748 0)
# Probe 507 (0.76606 0.53038 0)
# Probe 508 (0.59109 0.81268 0)
# Probe 509 (0.60693 0.84121 0)
# Probe 510 (0.57265 0.84142 0)
# Probe 511 (0.20355 0.56806 0)
# Probe 512 (0.16132 0.56351 0)
# Probe 513 (0.28279 0.27653 0)
# Probe 514 (0.47977 0.40428 0)
# Probe 515 (0.46114 0.40396 0)
# Probe 516 (0.863 0.46085 0)
# Probe 517 (0.8722 0.48989 0)
# Probe 518 (0.85049 0.72377 0)
# Probe 519 (0.83475 0.75641 0)
# Probe 520 (0.79936 0.15074 0)
# Probe 521 (0.76137 0.14575 0)
# Probe 522 (0.83816 0.15636 0)
# Probe 523 (0.77261 0.55024 0)
# Probe 524 (0.79458 0.55687 0)
# Probe 525 (0.39631 0.12177 0)
# Probe 526 (0.50786 0.39143 0)
# Probe 527 (0.55868 0.34762 0)
# Probe 528 (0.54975 0.65926 0)
# Probe 529 (0.4338 0.52798 0)
# Probe 530 (0.58368 0.32134 0)
# Probe 531 (0.589 0.33756 0)
# Probe 532 (0.60049 0.32507 0)
# Probe 533 (0.47612 0.4698 0)
# Probe 534 (0.60537 0.34247 0)
# Probe 535 (0.61677 0.32813 0)
# Probe 536 (0.48508 0.53295 0)
# Probe 537 (0.22024 0.84901 0)
# Probe 538 (0.17682 0.84659 0)
# Probe 539 (0.7533 0.54285 0)
# Probe 540 (0.69171 0.61451 0)
# Probe 541 (0.88194 0.65866 0)
# Probe 542 (0.55793 0.61337 0)
# Probe 543 (0.38852 0.88392 0)
# Probe 544 (0.5142 0.56699 0)
# Probe 545 (0.72583 0.5774 0)
# Probe 546 (0.87416 0.75438 0)
# Probe 547 (0.85728 0.78888 0)
# Probe 548 (0.43125 0.12369 0)
# Probe 549 (0.486 0.34483 0)
# Probe 550 (0.77003 0.75484 0)
# Probe 551 (0.43107 0.81895 0)
# Probe 552 (0.4485 0.85163 0)
# Probe 553 (0.56032 0.10382 0)
# Probe 554 (0.62206 0.3431 0)
# Probe 555 (0.63267 0.33082 0)
# Probe 556 (0.6374 0.34547 0)
# Probe 557 (0.64831 0.33364 0)
# Probe 558 (0.65436 0.35011 0)
# Probe 559 (0.66405 0.33648 0)
# Probe 560 (0.67056 0.35116 0)
# Probe 561 (0.67964 0.33909 0)
# Probe 562 (0.68468 0.3535 0)
# Probe 563 (0.69586 0.34262 0)
# Probe 564 (0.69984 0.35935 0)
# Probe 565 (0.7131 0.34503 0)
# Probe 566 (0.57962 0.30486 0)
# Probe 567 (0.59085 0.87484 0)
# Probe 568 (0.55375 0.87296 0)
# Probe 569 (0.61694 0.65127 0)
# Probe 570 (0.62513 0.6359 0)
# Probe 571 (0.60734 0.66756 0)
# Probe 572 (0.61732 0.68458 0)
# Probe 573 (0.83842 0.60591 0)
# Probe 574 (0.87097 0.60171 0)
# Probe 575 (0.77755 0.57306 0)
# Probe 576 (0.46192 0.66165 0)
# Probe 577 (0.1383 0.29382 0)
# Probe 578 (0.12219 0.25661 0)
# Probe 579 (0.48564 0.45691 0)
# Probe 580 (0.48013 0.44254 0)
# Probe 581 (0.5078 0.55312 0)
# Probe 582 (0.22249 0.12426 0)
# Probe 583 (0.26564 0.12885 0)
# Probe 584 (0.52091 0.68422 0)
# Probe 585 (0.73762 0.17403 0)
# Probe 586 (0.72402 0.14033 0)
# Probe 587 (0.80243 0.87552 0)
# Probe 588 (0.71872 0.36173 0)
# Probe 589 (0.70785 0.37501 0)
# Probe 590 (0.72426 0.37816 0)
# Probe 591 (0.62592 0.87634 0)
# Probe 592 (0.2403 0.57274 0)
# Probe 593 (0.22693 0.53891 0)
# Probe 594 (0.25582 0.60622 0)
# Probe 595 (0.13356 0.66494 0)
# Probe 596 (0.11595 0.62842 0)
# Probe 597 (0.70073 0.16857 0)
# Probe 598 (0.6872 0.13546 0)
# Probe 599 (0.71183 0.10378 0)
# Probe 600 (0.66417 0.16316 0)
# Probe 601 (0.65396 0.12931 0)
# Probe 602 (0.82195 0.11978 0)
# Probe 603 (0.86562 0.12496 0)
# Probe 604 (0.49605 0.19033 0)
# Probe 605 (0.3658 0.21743 0)
# Probe 606 (0.30906 0.71907 0)
# Probe 607 (0.73215 0.34563 0)
# Probe 608 (0.26988 0.34227 0)
# Probe 609 (0.89423 0.46653 0)
# Probe 610 (0.90383 0.49874 0)
# Probe 611 (0.62826 0.31526 0)
# Probe 612 (0.45272 0.38797 0)
# Probe 613 (0.44186 0.40402 0)
# Probe 614 (0.74553 0.5261 0)
# Probe 615 (0.46798 0.82037 0)
# Probe 616 (0.57219 0.90721 0)
# Probe 617 (0.70845 0.57722 0)
# Probe 618 (0.15798 0.80648 0)
# Probe 619 (0.1319 0.84366 0)
# Probe 620 (0.17083 0.19068 0)
# Probe 621 (0.15305 0.15099 0)
# Probe 622 (0.481 0.8497 0)
# Probe 623 (0.357 0.11668 0)
# Probe 624 (0.71284 0.39226 0)
# Probe 625 (0.72854 0.39449 0)
# Probe 626 (0.2489 0.08789 0)
# Probe 627 (0.79361 0.64396 0)
# Probe 628 (0.87669 0.51798 0)
# Probe 629 (0.83524 0.25382 0)
# Probe 630 (0.86018 0.22732 0)
# Probe 631 (0.87173 0.26246 0)
# Probe 632 (0.89679 0.23478 0)
# Probe 633 (0.38165 0.08303 0)
# Probe 634 (0.16704 0.42604 0)
# Probe 635 (0.14348 0.45647 0)
# Probe 636 (0.12936 0.41728 0)
# Probe 637 (0.59717 0.68499 0)
# Probe 638 (0.12199 0.18603 0)
# Probe 639 (0.88898 0.71974 0)
# Probe 640 (0.7423 0.57654 0)
# Probe 641 (0.63129 0.15792 0)
# Probe 642 (0.49651 0.4457 0)
# Probe 643 (0.49026 0.43138 0)
# Probe 644 (0.50426 0.43333 0)
# Probe 645 (0.49961 0.42082 0)
# Probe 646 (0.50333 0.12598 0)
# Probe 647 (0.16034 0.49215 0)
# Probe 648 (0.1199 0.48927 0)
# Probe 649 (0.10398 0.13938 0)
# Probe 650 (0.67399 0.32437 0)
# Probe 651 (0.53408 0.90677 0)
# Probe 652 (0.2614 0.85063 0)
# Probe 653 (0.23976 0.88739 0)
# Probe 654 (0.28276 0.88788 0)
# Probe 655 (0.61432 0.3543 0)
# Probe 656 (0.87876 0.16436 0)
# Probe 657 (0.52241 0.55327 0)
# Probe 658 (0.52832 0.56664 0)
# Probe 659 (0.11224 0.80149 0)
# Probe 660 (0.46739 0.88371 0)
# Probe 661 (0.49288 0.47136 0)
# Probe 662 (0.33591 0.14638 0)
# Probe 663 (0.43464 0.3875 0)
# Probe 664 (0.84956 0.57477 0)
# Probe 665 (0.71689 0.56425 0)
# Probe 666 (0.26836 0.4882 0)
# Probe 667 (0.73498 0.53887 0)
# Probe 668 (0.90671 0.12905 0)
# Probe 669 (0.90141 0.78461 0)
# Probe 670 (0.8818 0.82889 0)
# Probe 671 (0.15189 0.88318 0)
# Probe 672 (0.81965 0.79319 0)
# Probe 673 (0.47544 0.42902 0)
# Probe 674 (0.13454 0.10854 0)
# Probe 675 (0.4514 0.42033 0)
# Probe 676 (0.43107 0.42637 0)
# Probe 677 (0.88645 0.43543 0)
# Probe 678 (0.60885 0.63627 0)
# Probe 679 (0.61704 0.62201 0)
# Probe 680 (0.63191 0.62177 0)
# Probe 681 (0.62442 0.60945 0)
# Probe 682 (0.61204 0.60954 0)
# Probe 683 (0.63801 0.60857 0)
# Probe 684 (0.63111 0.59794 0)
# Probe 685 (0.48323 0.48219 0)
# Probe 686 (0.49463 0.48379 0)
# Probe 687 (0.10411 0.88085 0)
# Probe 688 (0.26118 0.92358 0)
# Probe 689 (0.88779 0.57049 0)
# Probe 690 (0.90403 0.60217 0)
# Probe 691 (0.59253 0.11351 0)
# Probe 692 (0.80064 0.58029 0)
# Probe 693 (0.78193 0.59732 0)
# Probe 694 (0.53742 0.83895 0)
# Probe 695 (0.91191 0.53326 0)
# Probe 696 (0.27661 0.57606 0)
# Probe 697 (0.92873 0.473 0)
# Probe 698 (0.76001 0.50399 0)
# Probe 699 (0.75433 0.48761 0)
# Probe 700 (0.76845 0.47421 0)
# Probe 701 (0.7514 0.47075 0)
# Probe 702 (0.76236 0.45838 0)
# Probe 703 (0.74651 0.49996 0)
# Probe 704 (0.74487 0.45483 0)
# Probe 705 (0.75639 0.44314 0)
# Probe 706 (0.74134 0.43884 0)
# Probe 707 (0.75105 0.42719 0)
# Probe 708 (0.7733 0.44536 0)
# Probe 709 (0.73697 0.4253 0)
# Probe 710 (0.74519 0.41369 0)
# Probe 711 (0.64588 0.6199 0)
# Probe 712 (0.64997 0.60607 0)
# Probe 713 (0.73803 0.46703 0)
# Probe 714 (0.45045 0.7878 0)
# Probe 715 (0.67443 0.36309 0)
# Probe 716 (0.58882 0.66809 0)
# Probe 717 (0.48922 0.49433 0)
# Probe 718 (0.76755 0.38973 0)
# Probe 719 (0.60787 0.7026 0)
# Probe 720 (0.62869 0.70118 0)
# Probe 721 (0.58916 0.27477 0)
# Probe 722 (0.29636 0.09158 0)
# Probe 723 (0.57996 0.68368 0)
# Probe 724 (0.49943 0.45972 0)
# Probe 725 (0.09505 0.28822 0)
# Probe 726 (0.11657 0.33162 0)
# Probe 727 (0.08254 0.24495 0)
# Probe 728 (0.69836 0.59879 0)
# Probe 729 (0.68301 0.60036 0)
# Probe 730 (0.68927 0.58588 0)
# Probe 731 (0.67606 0.61424 0)
# Probe 732 (0.70369 0.56401 0)
# Probe 733 (0.5173 0.37816 0)
# Probe 734 (0.52295 0.39293 0)
# Probe 735 (0.51488 0.40533 0)
# Probe 736 (0.53422 0.38222 0)
# Probe 737 (0.54373 0.36965 0)
# Probe 738 (0.52804 0.40515 0)
# Probe 739 (0.54201 0.35469 0)
# Probe 740 (0.54817 0.38263 0)
# Probe 741 (0.55632 0.37296 0)
# Probe 742 (0.68088 0.63186 0)
# Probe 743 (0.66822 0.84386 0)
# Probe 744 (0.12624 0.92477 0)
# Probe 745 (0.57769 0.35001 0)
# Probe 746 (0.59254 0.35244 0)
# Probe 747 (0.6278 0.35524 0)
# Probe 748 (0.6412 0.3607 0)
# Probe 749 (0.6548 0.3657 0)
# Probe 750 (0.56578 0.27364 0)
# Probe 751 (0.63785 0.28413 0)
# Probe 752 (0.72477 0.32723 0)
# Probe 753 (0.54737 0.93749 0)
# Probe 754 (0.58411 0.36529 0)
# Probe 755 (0.56743 0.36416 0)
# Probe 756 (0.57525 0.37392 0)
# Probe 757 (0.81408 0.83626 0)
# Probe 758 (0.84538 0.86453 0)
# Probe 759 (0.66963 0.60194 0)
# Probe 760 (0.73433 0.56335 0)
# Probe 761 (0.72213 0.54954 0)
# Probe 762 (0.68911 0.29773 0)
# Probe 763 (0.46616 0.48672 0)
# Probe 764 (0.77874 0.67068 0)
# Probe 765 (0.52294 0.58231 0)
# Probe 766 (0.53618 0.57622 0)
# Probe 767 (0.54415 0.59207 0)
# Probe 768 (0.47885 0.51853 0)
# Probe 769 (0.49522 0.5206 0)
# Probe 770 (0.50086 0.53362 0)
# Probe 771 (0.49349 0.54777 0)
# Probe 772 (0.72033 0.40419 0)
# Probe 773 (0.51449 0.42469 0)
# Probe 774 (0.68352 0.70789 0)
# Probe 775 (0.66525 0.73062 0)
# Probe 776 (0.63529 0.73728 0)
# Probe 777 (0.69711 0.38791 0)
# Probe 778 (0.69446 0.37376 0)
# Probe 779 (0.70227 0.39895 0)
# Probe 780 (0.57523 0.61397 0)
# Probe 781 (0.56718 0.60061 0)
# Probe 782 (0.58169 0.60167 0)
# Probe 783 (0.59093 0.61376 0)
# Probe 784 (0.59508 0.60093 0)
# Probe 785 (0.74059 0.38196 0)
# Probe 786 (0.53323 0.55579 0)
# Probe 787 (0.7706 0.95602 0)
# Probe 788 (0.65342 0.91148 0)
# Probe 789 (0.38018 0.42158 0)
# Probe 790 (0.36373 0.44411 0)
# Probe 791 (0.37444 0.46982 0)
# Probe 792 (0.39242 0.44834 0)
# Probe 793 (0.35901 0.49316 0)
# Probe 794 (0.38407 0.49404 0)
# Probe 795 (0.37254 0.51386 0)
# Probe 796 (0.39603 0.5156 0)
# Probe 797 (0.4062 0.42365 0)
# Probe 798 (0.79148 0.4707 0)
# Probe 799 (0.53966 0.61329 0)
# Probe 800 (0.58562 0.0736 0)
# Probe 801 (0.54358 0.06917 0)
# Probe 802 (0.1404 0.52664 0)
# Probe 803 (0.09629 0.52318 0)
# Probe 804 (0.11904 0.55991 0)
# Probe 805 (0.07884 0.48424 0)
# Probe 806 (0.4035 0.60039 0)
# Probe 807 (0.4297 0.60375 0)
# Probe 808 (0.41964 0.58111 0)
# Probe 809 (0.44072 0.62535 0)
# Probe 810 (0.4521 0.60598 0)
# Probe 811 (0.4637 0.62531 0)
# Probe 812 (0.44264 0.58323 0)
# Probe 813 (0.71198 0.20046 0)
# Probe 814 (0.74878 0.21128 0)
# Probe 815 (0.75903 0.80836 0)
# Probe 816 (0.69658 0.31543 0)
# Probe 817 (0.51666 0.43584 0)
# Probe 818 (0.39679 0.47412 0)
# Probe 819 (0.51511 0.54521 0)
# Probe 820 (0.44666 0.33 0)
# Probe 821 (0.45467 0.35255 0)
# Probe 822 (0.46492 0.30806 0)
# Probe 823 (0.4921 0.31196 0)
# Probe 824 (0.39236 0.5759 0)
# Probe 825 (0.40836 0.55815 0)
# Probe 826 (0.23542 0.63838 0)
# Probe 827 (0.27356 0.63781 0)
# Probe 828 (0.2888 0.67017 0)
# Probe 829 (0.30813 0.63994 0)
# Probe 830 (0.67611 0.58647 0)
# Probe 831 (0.42819 0.64637 0)
# Probe 832 (0.60407 0.58686 0)
# Probe 833 (0.5551 0.56715 0)
# Probe 834 (0.55506 0.57851 0)
# Probe 835 (0.56425 0.58431 0)
# Probe 836 (0.51461 0.50623 0)
# Probe 837 (0.50201 0.50296 0)
# Probe 838 (0.50665 0.51386 0)
# Probe 839 (0.52203 0.52634 0)
# Probe 840 (0.53253 0.54537 0)
# Probe 841 (0.51151 0.46284 0)
# Probe 842 (0.59362 0.58448 0)
# Probe 843 (0.67559 0.5733 0)
# Probe 844 (0.4111 0.78674 0)
# Probe 845 (0.55444 0.39226 0)
# Probe 846 (0.26131 0.54451 0)
# Probe 847 (0.96058 0.22453 0)
# Probe 848 (0.51213 0.48517 0)
# Probe 849 (0.6041 0.37279 0)
# Probe 850 (0.6565 0.5822 0)
# Probe 851 (0.65351 0.59304 0)
# Probe 852 (0.64249 0.59634 0)
# Probe 853 (0.61479 0.37213 0)
# Probe 854 (0.6359 0.37279 0)
# Probe 855 (0.67583 0.38698 0)
# Probe 856 (0.95081 0.77827 0)
# Probe 857 (0.7003 0.55278 0)
# Probe 858 (0.71382 0.53655 0)
# Probe 859 (0.76332 0.64229 0)
# Probe 860 (0.75057 0.66742 0)
# Probe 861 (0.73979 0.47943 0)
# Probe 862 (0.72204 0.44349 0)
# Probe 863 (0.71354 0.4246 0)
# Probe 864 (0.04188 0.37477 0)
# Probe 865 (0.08361 0.40716 0)
# Probe 866 (0.73276 0.78294 0)
# Probe 867 (0.65659 0.37753 0)
# Probe 868 (0.51064 0.70815 0)
# Probe 869 (0.53554 0.70308 0)
# Probe 870 (0.09147 0.66447 0)
# Probe 871 (0.10992 0.70071 0)
# Probe 872 (0.07161 0.62515 0)
# Probe 873 (0.95794 0.377 0)
# Probe 874 (0.91311 0.40396 0)
# Probe 875 (0.91839 0.35783 0)
# Probe 876 (0.88757 0.37655 0)
# Probe 877 (0.87996 0.34157 0)
# Probe 878 (0.91472 0.31773 0)
# Probe 879 (0.91299 0.27559 0)
# Probe 880 (0.72224 0.5166 0)
# Probe 881 (0.73293 0.51426 0)
# Probe 882 (0.72747 0.49602 0)
# Probe 883 (0.75718 0.59034 0)
# Probe 884 (0.76296 0.61356 0)
# Probe 885 (0.96262 0.62401 0)
# Probe 886 (0.95887 0.67169 0)
# Probe 887 (0.92126 0.64093 0)
# Probe 888 (0.27409 0.70789 0)
# Probe 889 (0.81939 0.56248 0)
# Probe 890 (0.30581 0.24689 0)
# Probe 891 (0.31863 0.28192 0)
# Probe 892 (0.29898 0.31481 0)
# Probe 893 (0.33484 0.31399 0)
# Probe 894 (0.34586 0.25431 0)
# Probe 895 (0.26057 0.30686 0)
# Probe 896 (0.64234 0.19272 0)
# Probe 897 (0.67745 0.19593 0)
# Probe 898 (0.64623 0.30487 0)
# Probe 899 (0.95918 0.52929 0)
# Probe 900 (0.24875 0.51318 0)
# Probe 901 (0.21796 0.50398 0)
# Probe 902 (0.18583 0.52595 0)
# Probe 903 (0.82352 0.04219 0)
# Probe 904 (0.4459 0.68207 0)
# Probe 905 (0.45875 0.19763 0)
# Probe 906 (0.67168 0.04118 0)
# Probe 907 (0.64932 0.08744 0)
# Probe 908 (0.72178 0.04334 0)
# Probe 909 (0.42002 0.04858 0)
# Probe 910 (0.45 0.08291 0)
# Probe 911 (0.49409 0.08304 0)
# Probe 912 (0.49969 0.40595 0)
# Probe 913 (0.60026 0.65234 0)
# Probe 914 (0.08616 0.09173 0)
# Probe 915 (0.11955 0.06204 0)
# Probe 916 (0.54373 0.67845 0)
# Probe 917 (0.74842 0.07993 0)
# Probe 918 (0.80046 0.08103 0)
# Probe 919 (0.27394 0.0452 0)
# Probe 920 (0.22319 0.04338 0)
# Probe 921 (0.42675 0.95914 0)
# Probe 922 (0.37707 0.95853 0)
# Probe 923 (0.35134 0.91659 0)
# Probe 924 (0.66088 0.7031 0)
# Probe 925 (0.89158 0.08745 0)
# Probe 926 (0.04547 0.58006 0)
# Probe 927 (0.95439 0.1281 0)
# Probe 928 (0.04073 0.72434 0)
# Probe 929 (0.6797 0.88201 0)
# Probe 930 (0.53556 0.39535 0)
# Probe 931 (0.21376 0.92178 0)
# Probe 932 (0.04004 0.77464 0)
# Probe 933 (0.08962 0.75026 0)
# Probe 934 (0.95555 0.33423 0)
# Probe 935 (0.95937 0.87248 0)
# Probe 936 (0.87701 0.95473 0)
# Probe 937 (0.90494 0.91645 0)
# Probe 938 (0.64176 0.63572 0)
# Probe 939 (0.7376 0.30798 0)
# Probe 940 (0.28923 0.60653 0)
# Probe 941 (0.56019 0.8117 0)
# Probe 942 (0.50478 0.82073 0)
# Probe 943 (0.48742 0.79103 0)
# Probe 944 (0.63578 0.58756 0)
# Probe 945 (0.50998 0.52439 0)
# Probe 946 (0.32802 0.21587 0)
# Probe 947 (0.38333 0.24858 0)
# Probe 948 (0.91763 0.68826 0)
# Probe 949 (0.34405 0.7235 0)
# Probe 950 (0.05019 0.12875 0)
# Probe 951 (0.66078 0.61643 0)
# Probe 952 (0.87932 0.30091 0)
# Probe 953 (0.05092 0.87722 0)
# Probe 954 (0.57366 0.57797 0)
# Probe 955 (0.57545 0.58919 0)
# Probe 956 (0.85008 0.31888 0)
# Probe 957 (0.27995 0.37662 0)
# Probe 958 (0.92019 0.85003 0)
# Probe 959 (0.29422 0.5448 0)
# Probe 960 (0.34998 0.18354 0)
# Probe 961 (0.91919 0.74959 0)
# Probe 962 (0.30254 0.35322 0)
# Probe 963 (0.60612 0.59804 0)
# Probe 964 (0.1977 0.08446 0)
# Probe 965 (0.43482 0.44816 0)
# Probe 966 (0.72973 0.52628 0)
# Probe 967 (0.5784 0.7855 0)
# Probe 968 (0.53927 0.40692 0)
# Probe 969 (0.27769 0.16938 0)
# Probe 970 (0.5125 0.86926 0)