# Probe 0 (0 0 0)
# Probe 1 (1 0 0)
# Probe 2 (1 1 0)
# Probe 3 (0 1 0)
# Probe 4 (0.34 0.36 0)
# Probe 5 (0.24 0.26 0)
# Probe 6 (0.14 0.36 0)
# Probe 7 (0.24 0.46 0)
# Probe 8 (0.05 0 0)
# Probe 9 (0.1 0 0)
# Probe 10 (0.15 0 0)
# Probe 11 (0.2 0 0)
# Probe 12 (0.25 0 0)
# Probe 13 (0.3 0 0)
# Probe 14 (0.35 0 0)
# Probe 15 (0.4 0 0)
# Probe 16 (0.45 0 0)
# Probe 17 (0.5 0 0)
# Probe 18 (0.55 0 0)
# Probe 19 (0.6 0 0)
# Probe 20 (0.65 0 0)
# Probe 21 (0.7 0 0)
# Probe 22 (0.75 0 0)
# Probe 23 (0.8 0 0)
# Probe 24 (0.85 0 0)
# Probe 25 (0.9 0 0)
# Probe 26 (0.95 0 0)
# Probe 27 (1 0.05 0)
# Probe 28 (1 0.1 0)
# Probe 29 (1 0.15 0)
# Probe 30 (1 0.2 0)
# Probe 31 (1 0.25 0)
# Probe 32 (1 0.3 0)
# Probe 33 (1 0.35 0)
# Probe 34 (1 0.4 0)
# Probe 35 (1 0.45 0)
# Probe 36 (1 0.5 0)
# Probe 37 (1 0.55 0)
# Probe 38 (1 0.6 0)
# Probe 39 (1 0.65 0)
# Probe 40 (1 0.7 0)
# Probe 41 (1 0.75 0)
# Probe 42 (1 0.8 0)
# Probe 43 (1 0.85 0)
# Probe 44 (1 0.9 0)
# Probe 45 (1 0.95 0)
# Probe 46 (0.95 1 0)
# Probe 47 (0.9 1 0)
# Probe 48 (0.85 1 0)
# Probe 49 (0.8 1 0)
# Probe 50 (0.75 1 0)
# Probe 51 (0.7 1 0)
# Probe 52 (0.65 1 0)
# Probe 53 (0.6 1 0)
# Probe 54 (0.55 1 0)
# Probe 55 (0.5 1 0)
# Probe 56 (0.45 1 0)
# Probe 57 (0.4 1 0)
# Probe 58 (0.35 1 0)
# Probe 59 (0.3 1 0)
# Probe 60 (0.25 1 0)
# Probe 61 (0.2 1 0)
# Probe 62 (0.15 1 0)
# Probe 63 (0.1 1 0)
# Probe 64 (0.05 1 0)
# Probe 65 (0 0.95 0)
# Probe 66 (0 0.9 0)
# Probe 67 (0 0.85 0)
# Probe 68 (0 0.8 0)
# Probe 69 (0 0.75 0)
# Probe 70 (0 0.7 0)
# Probe 71 (0 0.65 0)
# Probe 72 (0 0.6 0)
# Probe 73 (0 0.55 0)
# Probe 74 (0 0.5 0)
# Probe 75 (0 0.45 0)
# Probe 76 (0 0.4 0)
# Probe 77 (0 0.35 0)
# Probe 78 (0 0.3 0)
# Probe 79 (0 0.25 0)
# Probe 80 (0 0.2 0)
# Probe 81 (0 0.15 0)
# Probe 82 (0 0.1 0)
# Probe 83 (0 0.05 0)
# Probe 84 (0.33952 0.3502 0)
# Probe 85 (0.33808 0.34049 0)
# Probe 86 (0.33569 0.33097 0)
# Probe 87 (0.33239 0.32173 0)
# Probe 88 (0.32819 0.31286 0)
# Probe 89 (0.32315 0.30444 0)
# Probe 90 (0.3173 0.29656 0)
# Probe 91 (0.31071 0.28929 0)
# Probe 92 (0.30344 0.2827 0)
# Probe 93 (0.29556 0.27685 0)
# Probe 94 (0.28714 0.27181 0)
# Probe 95 (0.27827 0.26761 0)
# Probe 96 (0.26903 0.26431 0)
# Probe 97 (0.25951 0.26192 0)
# Probe 98 (0.2498 0.26048 0)
# Probe 99 (0.2302 0.26048 0)
# Probe 100 (0.22049 0.26192 0)
# Probe 101 (0.21097 0.26431 0)
# Probe 102 (0.20173 0.26761 0)
# Probe 103 (0.19286 0.27181 0)
# Probe 104 (0.18444 0.27685 0)
# Probe 105 (0.17656 0.2827 0)
# Probe 106 (0.16929 0.28929 0)
# Probe 107 (0.1627 0.29656 0)
# Probe 108 (0.15685 0.30444 0)
# Probe 109 (0.15181 0.31286 0)
# Probe 110 (0.14761 0.32173 0)
# Probe 111 (0.14431 0.33097 0)
# Probe 112 (0.14192 0.34049 0)
# Probe 113 (0.14048 0.3502 0)
# Probe 114 (0.14048 0.3698 0)
# Probe 115 (0.14192 0.37951 0)
# Probe 116 (0.14431 0.38903 0)
# Probe 117 (0.14761 0.39827 0)
# Probe 118 (0.15181 0.40714 0)
# Probe 119 (0.15685 0.41556 0)
# Probe 120 (0.1627 0.42344 0)
# Probe 121 (0.16929 0.43071 0)
# Probe 122 (0.17656 0.4373 0)
# Probe 123 (0.18444 0.44315 0)
# Probe 124 (0.19286 0.44819 0)
# Probe 125 (0.20173 0.45239 0)
# Probe 126 (0.21097 0.45569 0)
# Probe 127 (0.22049 0.45808 0)
# Probe 128 (0.2302 0.45952 0)
# Probe 129 (0.2498 0.45952 0)
# Probe 130 (0.25951 0.45808 0)
# Probe 131 (0.26903 0.45569 0)
# Probe 132 (0.27827 0.45239 0)
# Probe 133 (0.28714 0.44819 0)
# Probe 134 (0.29556 0.44315 0)
# Probe 135 (0.30344 0.4373 0)
# Probe 136 (0.31071 0.43071 0)
# Probe 137 (0.3173 0.42344 0)
# Probe 138 (0.32315 0.41556 0)
# Probe 139 (0.32819 0.40714 0)
# Probe 140 (0.33239 0.39827 0)
# Probe 141 (0.33569 0.38903 0)
# Probe 142 (0.33808 0.37951 0)
# Probe 143 (0.33952 0.3698 0)
# Probe 144 (0.95729 0.62426 0)
# Probe 145 (0.57236 0.95797 0)
# Probe 146 (0.9555 0.43026 0)
# Probe 147 (0.62509 0.0386 0)
# Probe 148 (0.37845 0.95992 0)
# Probe 149 (0.0433 0.675 0)
# Probe 150 (0.95857 0.27525 0)
# Probe 151 (0.72625 0.95912 0)
# Probe 152 (0.47864 0.04027 0)
# Probe 153 (0.22596 0.95701 0)
# Probe 154 (0.15954 0.28707 0)
# Probe 155 (0.1597 0.43278 0)
# Probe 156 (0.77506 0.04442 0)
# Probe 157 (0.9567 0.775 0)
# Probe 158 (0.32591 0.04428 0)
# Probe 159 (0.17334 0.04133 0)
# Probe 160 (0.19312 0.26207 0)
# Probe 161 (0.2344 0.2507 0)
# Probe 162 (0.21407 0.25482 0)
# Probe 163 (0.25614 0.25255 0)
# Probe 164 (0.17581 0.27226 0)
# Probe 165 (0.14692 0.41578 0)
# Probe 166 (0.14667 0.3039 0)
# Probe 167 (0.13571 0.39743 0)
# Probe 168 (0.13177 0.37637 0)
# Probe 169 (0.13039 0.35351 0)
# Probe 170 (0.13289 0.33452 0)
# Probe 171 (0.04509 0.17766 0)
# Probe 172 (0.04771 0.82176 0)
# Probe 173 (0.04051 0.52783 0)
# Probe 174 (0.47338 0.95783 0)
# Probe 175 (0.95759 0.52239 0)
# Probe 176 (0.95715 0.18072 0)
# Probe 177 (0.82782 0.95182 0)
# Probe 178 (0.1316 0.95511 0)
# Probe 179 (0.87446 0.03934 0)
# Probe 180 (0.95841 0.87226 0)
# Probe 181 (0.04164 0.27261 0)
# Probe 182 (0.0433 0.425 0)
# Probe 183 (0.04633 0.08019 0)
# Probe 184 (0.05059 0.9224 0)
# Probe 185 (0.95543 0.07554 0)
# Probe 186 (0.92479 0.95781 0)
# Probe 187 (0.04149 0.46583 0)
# Probe 188 (0.07685 0.49615 0)
# Probe 189 (0.07462 0.44523 0)
# Probe 190 (0.07838 0.41546 0)
# Probe 191 (0.10301 0.43057 0)
# Probe 192 (0.10134 0.40419 0)
# Probe 193 (0.084 0.38904 0)
# Probe 194 (0.10164 0.45836 0)
# Probe 195 (0.12279 0.4473 0)
# Probe 196 (0.12275 0.47025 0)
# Probe 197 (0.18469 0.45351 0)
# Probe 198 (0.13965 0.45756 0)
# Probe 199 (0.14487 0.47899 0)
# Probe 200 (0.12378 0.49283 0)
# Probe 201 (0.14464 0.50338 0)
# Probe 202 (0.12436 0.51638 0)
# Probe 203 (0.14632 0.52781 0)
# Probe 204 (0.21367 0.46513 0)
# Probe 205 (0.1252 0.54141 0)
# Probe 206 (0.14862 0.5522 0)
# Probe 207 (0.17101 0.53634 0)
# Probe 208 (0.17152 0.563 0)
# Probe 209 (0.19139 0.54953 0)
# Probe 210 (0.19353 0.5735 0)
# Probe 211 (0.2127 0.56003 0)
# Probe 212 (0.21516 0.58391 0)
# Probe 213 (0.23579 0.56678 0)
# Probe 214 (0.23709 0.59351 0)
# Probe 215 (0.25685 0.57975 0)
# Probe 216 (0.2588 0.604 0)
# Probe 217 (0.27845 0.59021 0)
# Probe 218 (0.28069 0.61432 0)
# Probe 219 (0.30043 0.60043 0)
# Probe 220 (0.30294 0.6249 0)
# Probe 221 (0.32354 0.61064 0)
# Probe 222 (0.32506 0.63621 0)
# Probe 223 (0.34814 0.621 0)
# Probe 224 (0.28703 0.45855 0)
# Probe 225 (0.34953 0.64855 0)
# Probe 226 (0.37336 0.63204 0)
# Probe 227 (0.37061 0.60415 0)
# Probe 228 (0.39594 0.61546 0)
# Probe 229 (0.39332 0.58813 0)
# Probe 230 (0.41799 0.59902 0)
# Probe 231 (0.41521 0.572 0)
# Probe 232 (0.43997 0.58284 0)
# Probe 233 (0.43695 0.55574 0)
# Probe 234 (0.46244 0.56668 0)
# Probe 235 (0.45932 0.53882 0)
# Probe 236 (0.48527 0.55008 0)
# Probe 237 (0.48198 0.52153 0)
# Probe 238 (0.50835 0.53309 0)
# Probe 239 (0.50479 0.50495 0)
# Probe 240 (0.51285 0.56102 0)
# Probe 241 (0.53257 0.51567 0)
# Probe 242 (0.52769 0.48839 0)
# Probe 243 (0.3377 0.40685 0)
# Probe 244 (0.55786 0.49742 0)
# Probe 245 (0.54816 0.46418 0)
# Probe 246 (0.42162 0.62682 0)
# Probe 247 (0.31229 0.44053 0)
# Probe 248 (0.58345 0.47801 0)
# Probe 249 (0.57915 0.44517 0)
# Probe 250 (0.54762 0.42967 0)
# Probe 251 (0.57577 0.41249 0)
# Probe 252 (0.54501 0.39829 0)
# Probe 253 (0.34808 0.36557 0)
# Probe 254 (0.5879 0.51118 0)
# Probe 255 (0.28079 0.63911 0)
# Probe 256 (0.57171 0.3797 0)
# Probe 257 (0.54118 0.36714 0)
# Probe 258 (0.60373 0.39224 0)
# Probe 259 (0.61525 0.49155 0)
# Probe 260 (0.619 0.52565 0)
# Probe 261 (0.21637 0.60827 0)
# Probe 262 (0.59891 0.35778 0)
# Probe 263 (0.63224 0.37102 0)
# Probe 264 (0.64736 0.50527 0)
# Probe 265 (0.65134 0.54066 0)
# Probe 266 (0.62705 0.33411 0)
# Probe 267 (0.47797 0.49313 0)
# Probe 268 (0.2556 0.46628 0)
# Probe 269 (0.51643 0.3854 0)
# Probe 270 (0.51244 0.35675 0)
# Probe 271 (0.66203 0.34859 0)
# Probe 272 (0.39215 0.56295 0)
# Probe 273 (0.29736 0.57678 0)
# Probe 274 (0.68081 0.5195 0)
# Probe 275 (0.68464 0.55604 0)
# Probe 276 (0.65452 0.57731 0)
# Probe 277 (0.6882 0.59316 0)
# Probe 278 (0.65691 0.61544 0)
# Probe 279 (0.69215 0.63152 0)
# Probe 280 (0.65981 0.65431 0)
# Probe 281 (0.69615 0.67083 0)
# Probe 282 (0.657 0.3106 0)
# Probe 283 (0.62101 0.29667 0)
# Probe 284 (0.49033 0.37346 0)
# Probe 285 (0.4862 0.34717 0)
# Probe 286 (0.34555 0.33567 0)
# Probe 287 (0.66348 0.69366 0)
# Probe 288 (0.32691 0.42418 0)
# Probe 289 (0.34694 0.38638 0)
# Probe 290 (0.69279 0.32557 0)
# Probe 291 (0.69961 0.71136 0)
# Probe 292 (0.65164 0.27209 0)
# Probe 293 (0.61503 0.25784 0)
# Probe 294 (0.71443 0.5332 0)
# Probe 295 (0.46609 0.36236 0)
# Probe 296 (0.46225 0.33736 0)
# Probe 297 (0.32054 0.28697 0)
# Probe 298 (0.33296 0.30446 0)
# Probe 299 (0.30466 0.27353 0)
# Probe 300 (0.28618 0.26366 0)
# Probe 301 (0.48192 0.32147 0)
# Probe 302 (0.45795 0.31229 0)
# Probe 303 (0.47755 0.29615 0)
# Probe 304 (0.454 0.2879 0)
# Probe 305 (0.47314 0.27054 0)
# Probe 306 (0.4447 0.26208 0)
# Probe 307 (0.46878 0.24305 0)
# Probe 308 (0.4406 0.23273 0)
# Probe 309 (0.62716 0.67699 0)
# Probe 310 (0.63041 0.71612 0)
# Probe 311 (0.59495 0.69931 0)
# Probe 312 (0.59783 0.73861 0)
# Probe 313 (0.56272 0.72179 0)
# Probe 314 (0.7338 0.68713 0)
# Probe 315 (0.73747 0.72947 0)
# Probe 316 (0.25809 0.55834 0)
# Probe 317 (0.44363 0.35262 0)
# Probe 318 (0.44668 0.37562 0)
# Probe 319 (0.56557 0.76071 0)
# Probe 320 (0.53135 0.74589 0)
# Probe 321 (0.60017 0.77917 0)
# Probe 322 (0.46465 0.21352 0)
# Probe 323 (0.43627 0.20342 0)
# Probe 324 (0.41282 0.22249 0)
# Probe 325 (0.40754 0.19426 0)
# Probe 326 (0.43558 0.30468 0)
# Probe 327 (0.64586 0.23286 0)
# Probe 328 (0.60908 0.21936 0)
# Probe 329 (0.71081 0.49645 0)
# Probe 330 (0.74576 0.51055 0)
# Probe 331 (0.3862 0.21185 0)
# Probe 332 (0.74195 0.47221 0)
# Probe 333 (0.77304 0.70381 0)
# Probe 334 (0.77736 0.7474 0)
# Probe 335 (0.14909 0.57883 0)
# Probe 336 (0.38004 0.1854 0)
# Probe 337 (0.35862 0.206 0)
# Probe 338 (0.43284 0.52995 0)
# Probe 339 (0.42767 0.36701 0)
# Probe 340 (0.42885 0.38829 0)
# Probe 341 (0.35366 0.17688 0)
# Probe 342 (0.33405 0.19485 0)
# Probe 343 (0.3285 0.16853 0)
# Probe 344 (0.30851 0.18841 0)
# Probe 345 (0.30342 0.16043 0)
# Probe 346 (0.28426 0.17772 0)
# Probe 347 (0.27862 0.15195 0)
# Probe 348 (0.25904 0.16914 0)
# Probe 349 (0.3909 0.23591 0)
# Probe 350 (0.53361 0.78322 0)
# Probe 351 (0.5009 0.76973 0)
# Probe 352 (0.77868 0.48835 0)
# Probe 353 (0.77429 0.4476 0)
# Probe 354 (0.78136 0.53025 0)
# Probe 355 (0.37694 0.66033 0)
# Probe 356 (0.35086 0.67754 0)
# Probe 357 (0.38056 0.69046 0)
# Probe 358 (0.35342 0.7086 0)
# Probe 359 (0.37478 0.15524 0)
# Probe 360 (0.4475 0.39719 0)
# Probe 361 (0.4299 0.40892 0)
# Probe 362 (0.74091 0.773 0)
# Probe 363 (0.21057 0.53713 0)
# Probe 364 (0.68364 0.24777 0)
# Probe 365 (0.67772 0.20594 0)
# Probe 366 (0.71753 0.22266 0)
# Probe 367 (0.4116 0.40028 0)
# Probe 368 (0.41282 0.41985 0)
# Probe 369 (0.52667 0.70676 0)
# Probe 370 (0.38345 0.72272 0)
# Probe 371 (0.35599 0.74182 0)
# Probe 372 (0.3253 0.72661 0)
# Probe 373 (0.32741 0.76117 0)
# Probe 374 (0.29526 0.74478 0)
# Probe 375 (0.35915 0.77677 0)
# Probe 376 (0.29766 0.78137 0)
# Probe 377 (0.26391 0.76409 0)
# Probe 378 (0.46482 0.59537 0)
# Probe 379 (0.46019 0.18201 0)
# Probe 380 (0.50253 0.30608 0)
# Probe 381 (0.78175 0.7917 0)
# Probe 382 (0.26641 0.80268 0)
# Probe 383 (0.23203 0.785 0)
# Probe 384 (0.22986 0.74611 0)
# Probe 385 (0.30121 0.8198 0)
# Probe 386 (0.19751 0.76679 0)
# Probe 387 (0.19625 0.7284 0)
# Probe 388 (0.20112 0.80749 0)
# Probe 389 (0.25296 0.14243 0)
# Probe 390 (0.23295 0.16081 0)
# Probe 391 (0.50156 0.80562 0)
# Probe 392 (0.39561 0.41175 0)
# Probe 393 (0.39641 0.43076 0)
# Probe 394 (0.41353 0.43925 0)
# Probe 395 (0.39715 0.44926 0)
# Probe 396 (0.39456 0.39335 0)
# Probe 397 (0.38066 0.44095 0)
# Probe 398 (0.3811 0.45879 0)
# Probe 399 (0.49572 0.25321 0)
# Probe 400 (0.16325 0.74879 0)
# Probe 401 (0.16214 0.71023 0)
# Probe 402 (0.59338 0.65525 0)
# Probe 403 (0.81312 0.7215 0)
# Probe 404 (0.80846 0.67753 0)
# Probe 405 (0.49088 0.19376 0)
# Probe 406 (0.36618 0.44963 0)
# Probe 407 (0.36612 0.46705 0)
# Probe 408 (0.38117 0.47647 0)
# Probe 409 (0.3655 0.48544 0)
# Probe 410 (0.35006 0.47561 0)
# Probe 411 (0.34992 0.49364 0)
# Probe 412 (0.33555 0.48558 0)
# Probe 413 (0.33479 0.50207 0)
# Probe 414 (0.32041 0.49317 0)
# Probe 415 (0.31955 0.50998 0)
# Probe 416 (0.30538 0.50119 0)
# Probe 417 (0.33407 0.51974 0)
# Probe 418 (0.81245 0.46406 0)
# Probe 419 (0.80746 0.42291 0)
# Probe 420 (0.41081 0.7034 0)
# Probe 421 (0.33771 0.21942 0)
# Probe 422 (0.5379 0.8242 0)
# Probe 423 (0.44895 0.41565 0)
# Probe 424 (0.24118 0.18824 0)
# Probe 425 (0.21426 0.17879 0)
# Probe 426 (0.20718 0.15325 0)
# Probe 427 (0.18734 0.17211 0)
# Probe 428 (0.17935 0.14446 0)
# Probe 429 (0.15881 0.16582 0)
# Probe 430 (0.17017 0.19562 0)
# Probe 431 (0.4145 0.45895 0)
# Probe 432 (0.71134 0.1796 0)
# Probe 433 (0.75192 0.19581 0)
# Probe 434 (0.75756 0.23934 0)
# Probe 435 (0.79298 0.21238 0)
# Probe 436 (0.79892 0.25725 0)
# Probe 437 (0.28781 0.20103 0)
# Probe 438 (0.48616 0.15924 0)
# Probe 439 (0.30403 0.5209 0)
# Probe 440 (0.29018 0.50902 0)
# Probe 441 (0.14969 0.13531 0)
# Probe 442 (0.7449 0.81739 0)
# Probe 443 (0.59032 0.54923 0)
# Probe 444 (0.38109 0.49475 0)
# Probe 445 (0.64345 0.47 0)
# Probe 446 (0.16386 0.49181 0)
# Probe 447 (0.67079 0.16372 0)
# Probe 448 (0.84938 0.69536 0)
# Probe 449 (0.84419 0.65095 0)
# Probe 450 (0.72383 0.60876 0)
# Probe 451 (0.13959 0.18768 0)
# Probe 452 (0.14785 0.21383 0)
# Probe 453 (0.51861 0.17251 0)
# Probe 454 (0.4539 0.149 0)
# Probe 455 (0.51401 0.13566 0)
# Probe 456 (0.5489 0.14947 0)
# Probe 457 (0.12077 0.20812 0)
# Probe 458 (0.13126 0.23563 0)
# Probe 459 (0.32342 0.14169 0)
# Probe 460 (0.83418 0.22959 0)
# Probe 461 (0.82882 0.18404 0)
# Probe 462 (0.83973 0.27472 0)
# Probe 463 (0.38014 0.40377 0)
# Probe 464 (0.2209 0.20199 0)
# Probe 465 (0.6668 0.38611 0)
# Probe 466 (0.80453 0.30222 0)
# Probe 467 (0.84659 0.31879 0)
# Probe 468 (0.46475 0.78449 0)
# Probe 469 (0.46853 0.82707 0)
# Probe 470 (0.37896 0.38663 0)
# Probe 471 (0.2403 0.2101 0)
# Probe 472 (0.26843 0.84264 0)
# Probe 473 (0.36575 0.43413 0)
# Probe 474 (0.32128 0.47643 0)
# Probe 475 (0.12926 0.73027 0)
# Probe 476 (0.30528 0.8606 0)
# Probe 477 (0.78621 0.83702 0)
# Probe 478 (0.82383 0.81037 0)
# Probe 479 (0.27444 0.123 0)
# Probe 480 (0.24535 0.11266 0)
# Probe 481 (0.22855 0.70806 0)
# Probe 482 (0.76859 0.40709 0)
# Probe 483 (0.29121 0.49303 0)
# Probe 484 (0.27722 0.50022 0)
# Probe 485 (0.54413 0.11052 0)
# Probe 486 (0.17037 0.22194 0)
# Probe 487 (0.27578 0.51602 0)
# Probe 488 (0.26174 0.50468 0)
# Probe 489 (0.23468 0.46825 0)
# Probe 490 (0.70513 0.1361 0)
# Probe 491 (0.58564 0.28294 0)
# Probe 492 (0.39154 0.37719 0)
# Probe 493 (0.84636 0.43928 0)
# Probe 494 (0.85151 0.48193 0)
# Probe 495 (0.58362 0.12617 0)
# Probe 496 (0.70403 0.7984 0)
# Probe 497 (0.70779 0.84306 0)
# Probe 498 (0.42321 0.34796 0)
# Probe 499 (0.37717 0.37073 0)
# Probe 500 (0.38921 0.36201 0)
# Probe 501 (0.37534 0.356 0)
# Probe 502 (0.38721 0.34709 0)
# Probe 503 (0.3525 0.4415 0)
# Probe 504 (0.12943 0.77086 0)
# Probe 505 (0.10233 0.22801 0)
# Probe 506 (0.11085 0.25341 0)
# Probe 507 (0.37344 0.34154 0)
# Probe 508 (0.3853 0.3322 0)
# Probe 509 (0.36884 0.32703 0)
# Probe 510 (0.38295 0.31708 0)
# Probe 511 (0.36848 0.31101 0)
# Probe 512 (0.38146 0.30118 0)
# Probe 513 (0.36618 0.2947 0)
# Probe 514 (0.12377 0.69326 0)
# Probe 515 (0.15944 0.67269 0)
# Probe 516 (0.12857 0.65491 0)
# Probe 517 (0.29589 0.71015 0)
# Probe 518 (0.82858 0.85684 0)
# Probe 519 (0.3798 0.28417 0)
# Probe 520 (0.3638 0.2781 0)
# Probe 521 (0.27832 0.48529 0)
# Probe 522 (0.43241 0.81033 0)
# Probe 523 (0.43518 0.84989 0)
# Probe 524 (0.86715 0.82929 0)
# Probe 525 (0.39923 0.32461 0)
# Probe 526 (0.40048 0.83249 0)
# Probe 527 (0.47204 0.87293 0)
# Probe 528 (0.62324 0.59885 0)
# Probe 529 (0.22488 0.22182 0)
# Probe 530 (0.10965 0.18226 0)
# Probe 531 (0.80392 0.63323 0)
# Probe 532 (0.83862 0.60698 0)
# Probe 533 (0.39622 0.29098 0)
# Probe 534 (0.1334 0.25964 0)
# Probe 535 (0.11834 0.2762 0)
# Probe 536 (0.48934 0.40143 0)
# Probe 537 (0.26967 0.09097 0)
# Probe 538 (0.70542 0.45736 0)
# Probe 539 (0.09343 0.75261 0)
# Probe 540 (0.41648 0.73637 0)
# Probe 541 (0.4418 0.71679 0)
# Probe 542 (0.66755 0.82437 0)
# Probe 543 (0.67062 0.86841 0)
# Probe 544 (0.63053 0.84995 0)
# Probe 545 (0.86358 0.78345 0)
# Probe 546 (0.24285 0.2294 0)
# Probe 547 (0.40235 0.87171 0)
# Probe 548 (0.43845 0.68378 0)
# Probe 549 (0.87549 0.88055 0)
# Probe 550 (0.35139 0.42669 0)
# Probe 551 (0.66358 0.12016 0)
# Probe 552 (0.69995 0.08622 0)
# Probe 553 (0.25636 0.21815 0)
# Probe 554 (0.15864 0.63747 0)
# Probe 555 (0.19074 0.65404 0)
# Probe 556 (0.63454 0.89189 0)
# Probe 557 (0.59546 0.87227 0)
# Probe 558 (0.53596 0.33676 0)
# Probe 559 (0.78985 0.88388 0)
# Probe 560 (0.52397 0.20867 0)
# Probe 561 (0.36552 0.39557 0)
# Probe 562 (0.27067 0.88445 0)
# Probe 563 (0.30994 0.90253 0)
# Probe 564 (0.23483 0.86503 0)
# Probe 565 (0.26106 0.52334 0)
# Probe 566 (0.24778 0.51321 0)
# Probe 567 (0.24744 0.49747 0)
# Probe 568 (0.23466 0.50395 0)
# Probe 569 (0.27558 0.53133 0)
# Probe 570 (0.87169 0.20006 0)
# Probe 571 (0.86576 0.15471 0)
# Probe 572 (0.82259 0.13835 0)
# Probe 573 (0.88512 0.66897 0)
# Probe 574 (0.89104 0.71437 0)
# Probe 575 (0.23671 0.07946 0)
# Probe 576 (0.43204 0.44887 0)
# Probe 577 (0.43326 0.46983 0)
# Probe 578 (0.45242 0.45849 0)
# Probe 579 (0.29039 0.47671 0)
# Probe 580 (0.41484 0.47963 0)
# Probe 581 (0.17832 0.10868 0)
# Probe 582 (0.14001 0.10144 0)
# Probe 583 (0.11357 0.12731 0)
# Probe 584 (0.84153 0.39508 0)
# Probe 585 (0.35082 0.29019 0)
# Probe 586 (0.34892 0.27237 0)
# Probe 587 (0.36105 0.26114 0)
# Probe 588 (0.34475 0.25586 0)
# Probe 589 (0.35639 0.24338 0)
# Probe 590 (0.33361 0.26911 0)
# Probe 591 (0.32898 0.25139 0)
# Probe 592 (0.74093 0.10972 0)
# Probe 593 (0.20638 0.21628 0)
# Probe 594 (0.36185 0.35051 0)
# Probe 595 (0.46904 0.69623 0)
# Probe 596 (0.4656 0.66344 0)
# Probe 597 (0.88591 0.45793 0)
# Probe 598 (0.12791 0.61926 0)
# Probe 599 (0.09829 0.63663 0)
# Probe 600 (0.09686 0.59925 0)
# Probe 601 (0.09416 0.27276 0)
# Probe 602 (0.10557 0.294 0)
# Probe 603 (0.36707 0.41072 0)
# Probe 604 (0.23507 0.4878 0)
# Probe 605 (0.222 0.4954 0)
# Probe 606 (0.66665 0.77896 0)
# Probe 607 (0.12663 0.4255 0)
# Probe 608 (0.88073 0.28829 0)
# Probe 609 (0.88517 0.33418 0)
# Probe 610 (0.06779 0.61941 0)
# Probe 611 (0.88983 0.50099 0)
# Probe 612 (0.85552 0.52648 0)
# Probe 613 (0.89623 0.54515 0)
# Probe 614 (0.10103 0.53116 0)
# Probe 615 (0.43369 0.49205 0)
# Probe 616 (0.30314 0.10782 0)
# Probe 617 (0.24374 0.53071 0)
# Probe 618 (0.10768 0.38112 0)
# Probe 619 (0.08978 0.36428 0)
# Probe 620 (0.06383 0.37266 0)
# Probe 621 (0.07128 0.345 0)
# Probe 622 (0.09695 0.33872 0)
# Probe 623 (0.06857 0.58046 0)
# Probe 624 (0.92569 0.68518 0)
# Probe 625 (0.39406 0.27359 0)
# Probe 626 (0.41179 0.27975 0)
# Probe 627 (0.22177 0.51069 0)
# Probe 628 (0.20736 0.50132 0)
# Probe 629 (0.20963 0.48454 0)
# Probe 630 (0.19465 0.49112 0)
# Probe 631 (0.19322 0.50898 0)
# Probe 632 (0.19704 0.4755 0)
# Probe 633 (0.4124 0.49835 0)
# Probe 634 (0.15601 0.23621 0)
# Probe 635 (0.17551 0.24184 0)
# Probe 636 (0.16251 0.2534 0)
# Probe 637 (0.80028 0.59144 0)
# Probe 638 (0.57568 0.08578 0)
# Probe 639 (0.53384 0.07302 0)
# Probe 640 (0.71165 0.88835 0)
# Probe 641 (0.2601 0.23308 0)
# Probe 642 (0.27171 0.22458 0)
# Probe 643 (0.27383 0.23788 0)
# Probe 644 (0.28924 0.23097 0)
# Probe 645 (0.33751 0.83659 0)
# Probe 646 (0.3553 0.31861 0)
# Probe 647 (0.277 0.47223 0)
# Probe 648 (0.21105 0.23498 0)
# Probe 649 (0.80999 0.34678 0)
# Probe 650 (0.76542 0.32444 0)
# Probe 651 (0.13867 0.43965 0)
# Probe 652 (0.24787 0.48311 0)
# Probe 653 (0.35659 0.40469 0)
# Probe 654 (0.36519 0.36453 0)
# Probe 655 (0.098 0.08906 0)
# Probe 656 (0.58128 0.16772 0)
# Probe 657 (0.36517 0.37941 0)
# Probe 658 (0.33989 0.43588 0)
# Probe 659 (0.34011 0.44846 0)
# Probe 660 (0.26888 0.47823 0)
# Probe 661 (0.31653 0.21161 0)
# Probe 662 (0.07955 0.32256 0)
# Probe 663 (0.13961 0.27848 0)
# Probe 664 (0.12661 0.29628 0)
# Probe 665 (0.11563 0.31184 0)
# Probe 666 (0.8593 0.11013 0)
# Probe 667 (0.90386 0.12583 0)
# Probe 668 (0.41609 0.24869 0)
# Probe 669 (0.36276 0.33862 0)
# Probe 670 (0.05436 0.32387 0)
# Probe 671 (0.26606 0.19125 0)
# Probe 672 (0.32937 0.44143 0)
# Probe 673 (0.32678 0.4537 0)
# Probe 674 (0.07373 0.1185 0)
# Probe 675 (0.03729 0.22643 0)
# Probe 676 (0.18065 0.48091 0)
# Probe 677 (0.26186 0.05288 0)
# Probe 678 (0.92835 0.47775 0)
# Probe 679 (0.501 0.67921 0)
# Probe 680 (0.49378 0.64287 0)
# Probe 681 (0.52729 0.65267 0)
# Probe 682 (0.52072 0.62205 0)
# Probe 683 (0.54755 0.62955 0)
# Probe 684 (0.54689 0.60151 0)
# Probe 685 (0.57671 0.61673 0)
# Probe 686 (0.58935 0.82928 0)
# Probe 687 (0.10194 0.55973 0)
# Probe 688 (0.31668 0.26181 0)
# Probe 689 (0.31374 0.24657 0)
# Probe 690 (0.30448 0.25645 0)
# Probe 691 (0.3069 0.48403 0)
# Probe 692 (0.30243 0.46981 0)
# Probe 693 (0.09324 0.79423 0)
# Probe 694 (0.13161 0.81502 0)
# Probe 695 (0.10914 0.35974 0)
# Probe 696 (0.19634 0.23028 0)
# Probe 697 (0.19962 0.24373 0)
# Probe 698 (0.0949 0.83879 0)
# Probe 699 (0.13513 0.86095 0)
# Probe 700 (0.09652 0.88516 0)
# Probe 701 (0.28451 0.24564 0)
# Probe 702 (0.8133 0.08889 0)
# Probe 703 (0.04808 0.77432 0)
# Probe 704 (0.37877 0.42198 0)
# Probe 705 (0.35475 0.30573 0)
# Probe 706 (0.34588 0.31402 0)
# Probe 707 (0.193 0.68993 0)
# Probe 708 (0.22188 0.66813 0)
# Probe 709 (0.25115 0.68459 0)
# Probe 710 (0.24965 0.64827 0)
# Probe 711 (0.19706 0.19527 0)
# Probe 712 (0.40414 0.35084 0)
# Probe 713 (0.61753 0.1031 0)
# Probe 714 (0.31537 0.46231 0)
# Probe 715 (0.16448 0.51238 0)
# Probe 716 (0.2717 0.92823 0)
# Probe 717 (0.05369 0.72642 0)
# Probe 718 (0.90733 0.80171 0)
# Probe 719 (0.27666 0.56823 0)
# Probe 720 (0.29494 0.55574 0)
# Probe 721 (0.31486 0.56347 0)
# Probe 722 (0.31286 0.54083 0)
# Probe 723 (0.33243 0.55049 0)
# Probe 724 (0.33477 0.57082 0)
# Probe 725 (0.35156 0.55597 0)
# Probe 726 (0.51876 0.41445 0)
# Probe 727 (0.49459 0.42972 0)
# Probe 728 (0.4365 0.32965 0)
# Probe 729 (0.22707 0.23856 0)
# Probe 730 (0.47201 0.7285 0)
# Probe 731 (0.26653 0.4893 0)
# Probe 732 (0.37107 0.58088 0)
# Probe 733 (0.46136 0.62956 0)
# Probe 734 (0.33953 0.46165 0)
# Probe 735 (0.30451 0.44723 0)
# Probe 736 (0.34181 0.39717 0)
# Probe 737 (0.33277 0.41566 0)
# Probe 738 (0.57167 0.57936 0)
# Probe 739 (0.34974 0.35364 0)
# Probe 740 (0.17833 0.25787 0)
# Probe 741 (0.29634 0.4528 0)
# Probe 742 (0.41253 0.54473 0)
# Probe 743 (0.38576 0.53776 0)
# Probe 744 (0.34574 0.34487 0)
# Probe 745 (0.30893 0.94702 0)
# Probe 746 (0.18713 0.61924 0)
# Probe 747 (0.07205 0.21613 0)
# Probe 748 (0.15446 0.44555 0)
# Probe 749 (0.15737 0.46225 0)
# Probe 750 (0.16728 0.45244 0)
# Probe 751 (0.17223 0.46568 0)
# Probe 752 (0.26618 0.46675 0)
# Probe 753 (0.34746 0.37533 0)
# Probe 754 (0.56167 0.68443 0)
# Probe 755 (0.51957 0.44221 0)
# Probe 756 (0.49636 0.45531 0)
# Probe 757 (0.26287 0.72164 0)
# Probe 758 (0.34363 0.4162 0)
# Probe 759 (0.24631 0.47034 0)
# Probe 760 (0.13078 0.06348 0)
# Probe 761 (0.4102 0.3795 0)
# Probe 762 (0.22915 0.54478 0)
# Probe 763 (0.20236 0.25591 0)
# Probe 764 (0.26631 0.25487 0)
# Probe 765 (0.24539 0.25134 0)
# Probe 766 (0.37197 0.04154 0)
# Probe 767 (0.35387 0.07927 0)
# Probe 768 (0.39263 0.0792 0)
# Probe 769 (0.37338 0.11824 0)
# Probe 770 (0.40987 0.11198 0)
# Probe 771 (0.4293 0.08124 0)
# Probe 772 (0.45284 0.50943 0)
# Probe 773 (0.4251 0.95892 0)
# Probe 774 (0.45015 0.91817 0)
# Probe 775 (0.49604 0.91613 0)
# Probe 776 (0.52428 0.87324 0)
# Probe 777 (0.54563 0.91876 0)
# Probe 778 (0.3127 0.27993 0)
# Probe 779 (0.2036 0.46246 0)
# Probe 780 (0.22404 0.4668 0)
# Probe 781 (0.39555 0.79329 0)
# Probe 782 (0.32736 0.29531 0)
# Probe 783 (0.33098 0.28411 0)
# Probe 784 (0.22388 0.25183 0)
# Probe 785 (0.96014 0.57512 0)
# Probe 786 (0.91624 0.59217 0)
# Probe 787 (0.62317 0.15113 0)
# Probe 788 (0.59254 0.32088 0)
# Probe 789 (0.55481 0.30975 0)
# Probe 790 (0.55271 0.2723 0)
# Probe 791 (0.5797 0.24608 0)
# Probe 792 (0.57044 0.2078 0)
# Probe 793 (0.13773 0.90637 0)
# Probe 794 (0.1734 0.87757 0)
# Probe 795 (0.18398 0.92291 0)
# Probe 796 (0.12058 0.3966 0)
# Probe 797 (0.62752 0.63656 0)
# Probe 798 (0.76216 0.28243 0)
# Probe 799 (0.08382 0.04219 0)
# Probe 800 (0.08317 0.69146 0)
# Probe 801 (0.27815 0.25712 0)
# Probe 802 (0.29682 0.26591 0)
# Probe 803 (0.34756 0.53461 0)
# Probe 804 (0.67509 0.04129 0)
# Probe 805 (0.72347 0.04091 0)
# Probe 806 (0.34521 0.59382 0)
# Probe 807 (0.41573 0.3167 0)
# Probe 808 (0.42383 0.77124 0)
# Probe 809 (0.22064 0.04045 0)
# Probe 810 (0.21308 0.10503 0)
# Probe 811 (0.19345 0.45915 0)
# Probe 812 (0.72193 0.26382 0)
# Probe 813 (0.11959 0.3429 0)
# Probe 814 (0.62268 0.96012 0)
# Probe 815 (0.32352 0.69414 0)
# Probe 816 (0.29844 0.67899 0)
# Probe 817 (0.22239 0.48351 0)
# Probe 818 (0.958 0.37784 0)
# Probe 819 (0.91828 0.39982 0)
# Probe 820 (0.167 0.27928 0)
# Probe 821 (0.1556 0.27671 0)
# Probe 822 (0.67463 0.95547 0)
# Probe 823 (0.96005 0.32747 0)
# Probe 824 (0.15278 0.42462 0)
# Probe 825 (0.76866 0.66072 0)
# Probe 826 (0.7025 0.75407 0)
# Probe 827 (0.32499 0.235 0)
# Probe 828 (0.30716 0.2309 0)
# Probe 829 (0.19155 0.52856 0)
# Probe 830 (0.13281 0.38718 0)
# Probe 831 (0.12788 0.40863 0)
# Probe 832 (0.40709 0.67225 0)
# Probe 833 (0.13089 0.36525 0)
# Probe 834 (0.14107 0.40679 0)
# Probe 835 (0.1528 0.29532 0)
# Probe 836 (0.14107 0.31321 0)
# Probe 837 (0.95719 0.22589 0)
# Probe 838 (0.91874 0.25809 0)
# Probe 839 (0.77529 0.95844 0)
# Probe 840 (0.08451 0.24807 0)
# Probe 841 (0.32107 0.43393 0)
# Probe 842 (0.04829 0.86969 0)
# Probe 843 (0.95456 0.12661 0)
# Probe 844 (0.95608 0.82483 0)
# Probe 845 (0.87781 0.95791 0)
# Probe 846 (0.5223 0.95826 0)
# Probe 847 (0.91434 0.84911 0)
# Probe 848 (0.56585 0.34533 0)
# Probe 849 (0.7366 0.43203 0)
# Probe 850 (0.7304 0.39102 0)
# Probe 851 (0.69583 0.41234 0)
# Probe 852 (0.67013 0.44507 0)
# Probe 853 (0.13667 0.32334 0)
# Probe 854 (0.469 0.38677 0)
# Probe 855 (0.62308 0.56144 0)
# Probe 856 (0.7643 0.61799 0)
# Probe 857 (0.76216 0.5743 0)
# Probe 858 (0.23977 0.24189 0)
# Probe 859 (0.21748 0.63595 0)
# Probe 860 (0.95002 0.72067 0)
# Probe 861 (0.56157 0.53023 0)
# Probe 862 (0.40065 0.91799 0)
# Probe 863 (0.35188 0.92092 0)
# Probe 864 (0.63584 0.4058 0)
# Probe 865 (0.5444 0.23827 0)
# Probe 866 (0.82574 0.04155 0)
# Probe 867 (0.50584 0.09834 0)
# Probe 868 (0.83341 0.56375 0)
# Probe 869 (0.63769 0.18891 0)
# Probe 870 (0.8306 0.90309 0)
# Probe 871 (0.78701 0.16817 0)
# Probe 872 (0.54292 0.57006 0)
# Probe 873 (0.13305 0.34432 0)
# Probe 874 (0.07092 0.54678 0)
# Probe 875 (0.90937 0.17306 0)
# Probe 876 (0.57187 0.04326 0)
# Probe 877 (0.69707 0.36424 0)
# Probe 878 (0.72936 0.34182 0)
# Probe 879 (0.71981 0.56824 0)
# Probe 880 (0.43002 0.17313 0)
# Probe 881 (0.81807 0.76555 0)
# Probe 882 (0.7485 0.8623 0)
# Probe 883 (0.36509 0.50377 0)
# Probe 884 (0.38223 0.51372 0)
# Probe 885 (0.75005 0.91632 0)
# Probe 886 (0.35697 0.38721 0)
# Probe 887 (0.68812 0.28714 0)
# Probe 888 (0.74573 0.15263 0)
# Probe 889 (0.16062 0.60643 0)
# Probe 890 (0.36551 0.54261 0)
# Probe 891 (0.87916 0.62361 0)
# Probe 892 (0.90368 0.92114 0)
# Probe 893 (0.67633 0.48228 0)
# Probe 894 (0.81593 0.50467 0)
# Probe 895 (0.61106 0.45848 0)
# Probe 896 (0.31838 0.58636 0)
# Probe 897 (0.29358 0.53565 0)
# Probe 898 (0.91037 0.75535 0)
# Probe 899 (0.32524 0.66395 0)
# Probe 900 (0.72982 0.64616 0)
# Probe 901 (0.4732 0.4446 0)
# Probe 902 (0.31413 0.451 0)
# Probe 903 (0.59644 0.91666 0)
# Probe 904 (0.07542 0.29472 0)
# Probe 905 (0.36471 0.52362 0)
# Probe 906 (0.41469 0.04215 0)
# Probe 907 (0.66632 0.73321 0)
# Probe 908 (0.33788 0.29344 0)
# Probe 909 (0.22656 0.52765 0)
# Probe 910 (0.38908 0.75703 0)
# Probe 911 (0.23486 0.90816 0)
# Probe 912 (0.39687 0.46757 0)
# Probe 913 (0.39914 0.64275 0)
# Probe 914 (0.87255 0.58057 0)
# Probe 915 (0.48935 0.57883 0)
# Probe 916 (0.49136 0.61021 0)
# Probe 917 (0.07797 0.96018 0)
# Probe 918 (0.41443 0.29799 0)
# Probe 919 (0.92387 0.03873 0)
# Probe 920 (0.95455 0.92181 0)
# Probe 921 (0.85759 0.73926 0)
# Probe 922 (0.23481 0.8243 0)
# Probe 923 (0.46979 0.42217 0)
# Probe 924 (0.6738 0.91272 0)
# Probe 925 (0.08705 0.15276 0)
# Probe 926 (0.63214 0.75791 0)
# Probe 927 (0.34133 0.87735 0)
# Probe 928 (0.62961 0.80688 0)
# Probe 929 (0.45389 0.48189 0)
# Probe 930 (0.16475 0.78712 0)
# Probe 931 (0.23896 0.47785 0)
# Probe 932 (0.2061 0.51834 0)
# Probe 933 (0.60693 0.42549 0)
# Probe 934 (0.47948 0.12292 0)
# Probe 935 (0.33146 0.79798 0)
# Probe 936 (0.35242 0.45732 0)
# Probe 937 (0.4355 0.65284 0)
# Probe 938 (0.32133 0.2754 0)
# Probe 939 (0.47543 0.46913 0)
# Probe 940 (0.19993 0.07229 0)
# Probe 941 (0.34936 0.51291 0)
# Probe 942 (0.16868 0.83185 0)
# Probe 943 (0.12194 0.58345 0)
# Probe 944 (0.18491 0.26817 0)
# Probe 945 (0.12075 0.37147 0)
# Probe 946 (0.76741 0.36592 0)
# Probe 947 (0.56532 0.79532 0)
# Probe 948 (0.04133 0.35186 0)
# Probe 949 (0.33716 0.11346 0)
# Probe 950 (0.23979 0.61913 0)
# Probe 951 (0.26195 0.62497 0)
# Probe 952 (0.27688 0.46187 0)
# Probe 953 (0.36576 0.81438 0)
# Probe 954 (0.18865 0.2137 0)
# Probe 955 (0.43049 0.42875 0)
# Probe 956 (0.64764 0.07632 0)
# Probe 957 (0.50701 0.33059 0)
# Probe 958 (0.5301 0.29348 0)
# Probe 959 (0.44115 0.60672 0)
# Probe 960 (0.30562 0.45776 0)
# Probe 961 (0.16721 0.44086 0)
# Probe 962 (0.46825 0.08226 0)
# Probe 963 (0.40768 0.51964 0)
# Probe 964 (0.14184 0.29382 0)
# Probe 965 (0.25956 0.53997 0)
# Probe 966 (0.49115 0.22517 0)
# Probe 967 (0.3771 0.26736 0)
# Probe 968 (0.22572 0.13377 0)
# Probe 969 (0.39792 0.33767 0)
# Probe 970 (0.40114 0.16459 0)
# Probe 971 (0.50022 0.28085 0)