# Probe 0 (0 0 0)
# Probe 1 (1 0 0)
# Probe 2 (1 1 0)
# Probe 3 (0 1 0)
# Probe 4 (0.64 0.47 0)
# Probe 5 (0.54 0.37 0)
# Probe 6 (0.44 0.47 0)
# Probe 7 (0.54 0.57 0)
# Probe 8 (0.05 0 0)
# Probe 9 (0.1 0 0)
# Probe 10 (0.15 0 0)
# Probe 11 (0.2 0 0)
# Probe 12 (0.25 0 0)
# Probe 13 (0.3 0 0)
# Probe 14 (0.35 0 0)
# Probe 15 (0.4 0 0)
# Probe 16 (0.45 0 0)
# Probe 17 (0.5 0 0)
# Probe 18 (0.55 0 0)
# Probe 19 (0.6 0 0)
# Probe 20 (0.65 0 0)
# Probe 21 (0.7 0 0)
# Probe 22 (0.75 0 0)
# Probe 23 (0.8 0 0)
# Probe 24 (0.85 0 0)
# Probe 25 (0.9 0 0)
# Probe 26 (0.95 0 0)
# Probe 27 (1 0.05 0)
# Probe 28 (1 0.1 0)
# Probe 29 (1 0.15 0)
# Probe 30 (1 0.2 0)
# Probe 31 (1 0.25 0)
# Probe 32 (1 0.3 0)
# Probe 33 (1 0.35 0)
# Probe 34 (1 0.4 0)
# Probe 35 (1 0.45 0)
# Probe 36 (1 0.5 0)
# Probe 37 (1 0.55 0)
# Probe 38 (1 0.6 0)
# Probe 39 (1 0.65 0)
# Probe 40 (1 0.7 0)
# Probe 41 (1 0.75 0)
# Probe 42 (1 0.8 0)
# Probe 43 (1 0.85 0)
# Probe 44 (1 0.9 0)
# Probe 45 (1 0.95 0)
# Probe 46 (0.95 1 0)
# Probe 47 (0.9 1 0)
# Probe 48 (0.85 1 0)
# Probe 49 (0.8 1 0)
# Probe 50 (0.75 1 0)
# Probe 51 (0.7 1 0)
# Probe 52 (0.65 1 0)
# Probe 53 (0.6 1 0)
# Probe 54 (0.55 1 0)
# Probe 55 (0.5 1 0)
# Probe 56 (0.45 1 0)
# Probe 57 (0.4 1 0)
# Probe 58 (0.35 1 0)
# Probe 59 (0.3 1 0)
# Probe 60 (0.25 1 0)
# Probe 61 (0.2 1 0)
# Probe 62 (0.15 1 0)
# Probe 63 (0.1 1 0)
# Probe 64 (0.05 1 0)
# Probe 65 (0 0.95 0)
# Probe 66 (0 0.9 0)
# Probe 67 (0 0.85 0)
# Probe 68 (0 0.8 0)
# Probe 69 (0 0.75 0)
# Probe 70 (0 0.7 0)
# Probe 71 (0 0.65 0)
# Probe 72 (0 0.6 0)
# Probe 73 (0 0.55 0)
# Probe 74 (0 0.5 0)
# Probe 75 (0 0.45 0)
# Probe 76 (0 0.4 0)
# Probe 77 (0 0.35 0)
# Probe 78 (0 0.3 0)
# Probe 79 (0 0.25 0)
# Probe 80 (0 0.2 0)
# Probe 81 (0 0.15 0)
# Probe 82 (0 0.1 0)
# Probe 83 (0 0.05 0)
# Probe 84 (0.63952 0.4602 0)
# Probe 85 (0.63808 0.45049 0)
# Probe 86 (0.63569 0.44097 0)
# Probe 87 (0.63239 0.43173 0)
# Probe 88 (0.62819 0.42286 0)
# Probe 89 (0.62315 0.41444 0)
# Probe 90 (0.6173 0.40656 0)
# Probe 91 (0.61071 0.39929 0)
# Probe 92 (0.60344 0.3927 0)
# Probe 93 (0.59556 0.38685 0)
# Probe 94 (0.58714 0.38181 0)
# Probe 95 (0.57827 0.37761 0)
# Probe 96 (0.56903 0.37431 0)
# Probe 97 (0.55951 0.37192 0)
# Probe 98 (0.5498 0.37048 0)
# Probe 99 (0.5302 0.37048 0)
# Probe 100 (0.52049 0.37192 0)
# Probe 101 (0.51097 0.37431 0)
# Probe 102 (0.50173 0.37761 0)
# Probe 103 (0.49286 0.38181 0)
# Probe 104 (0.48444 0.38685 0)
# Probe 105 (0.47656 0.3927 0)
# Probe 106 (0.46929 0.39929 0)
# Probe 107 (0.4627 0.40656 0)
# Probe 108 (0.45685 0.41444 0)
# Probe 109 (0.45181 0.42286 0)
# Probe 110 (0.44761 0.43173 0)
# Probe 111 (0.44431 0.44097 0)
# Probe 112 (0.44192 0.45049 0)
# Probe 113 (0.44048 0.4602 0)
# Probe 114 (0.44048 0.4798 0)
# Probe 115 (0.44192 0.48951 0)
# Probe 116 (0.44431 0.49903 0)
# Probe 117 (0.44761 0.50827 0)
# Probe 118 (0.45181 0.51714 0)
# Probe 119 (0.45685 0.52556 0)
# Probe 120 (0.4627 0.53344 0)
# Probe 121 (0.46929 0.54071 0)
# Probe 122 (0.47656 0.5473 0)
# Probe 123 (0.48444 0.55315 0)
# Probe 124 (0.49286 0.55819 0)
# Probe 125 (0.50173 0.56239 0)
# Probe 126 (0.51097 0.56569 0)
# Probe 127 (0.52049 0.56808 0)
# Probe 128 (0.5302 0.56952 0)
# Probe 129 (0.5498 0.56952 0)
# Probe 130 (0.55951 0.56808 0)
# Probe 131 (0.56903 0.56569 0)
# Probe 132 (0.57827 0.56239 0)
# Probe 133 (0.58714 0.55819 0)
# Probe 134 (0.59556 0.55315 0)
# Probe 135 (0.60344 0.5473 0)
# Probe 136 (0.61071 0.54071 0)
# Probe 137 (0.6173 0.53344 0)
# Probe 138 (0.62315 0.52556 0)
# Probe 139 (0.62819 0.51714 0)
# Probe 140 (0.63239 0.50827 0)
# Probe 141 (0.63569 0.49903 0)
# Probe 142 (0.63808 0.48951 0)
# Probe 143 (0.63952 0.4798 0)
# Probe 144 (0.04186 0.72685 0)
# Probe 145 (0.32661 0.95811 0)
# Probe 146 (0.0433 0.275 0)
# Probe 147 (0.72701 0.95776 0)
# Probe 148 (0.04205 0.57318 0)
# Probe 149 (0.33151 0.04535 0)
# Probe 150 (0.03988 0.42579 0)
# Probe 151 (0.47245 0.95255 0)
# Probe 152 (0.95268 0.66717 0)
# Probe 153 (0.72128 0.04684 0)
# Probe 154 (0.95939 0.27178 0)
# Probe 155 (0.47953 0.04037 0)
# Probe 156 (0.95765 0.52313 0)
# Probe 157 (0.9567 0.825 0)
# Probe 158 (0.17537 0.04037 0)
# Probe 159 (0.17142 0.95245 0)
# Probe 160 (0.9567 0.425 0)
# Probe 161 (0.575 0.0433 0)
# Probe 162 (0.95404 0.17144 0)
# Probe 163 (0.82854 0.04167 0)
# Probe 164 (0.575 0.9567 0)
# Probe 165 (0.82274 0.95901 0)
# Probe 166 (0.03924 0.18253 0)
# Probe 167 (0.0426 0.82448 0)
# Probe 168 (0.92569 0.96153 0)
# Probe 169 (0.04211 0.92077 0)
# Probe 170 (0.03861 0.07615 0)
# Probe 171 (0.92253 0.04193 0)
# Probe 172 (0.95774 0.4768 0)
# Probe 173 (0.91849 0.49422 0)
# Probe 174 (0.91751 0.54148 0)
# Probe 175 (0.88373 0.52147 0)
# Probe 176 (0.8818 0.55964 0)
# Probe 177 (0.8497 0.54039 0)
# Probe 178 (0.64513 0.49633 0)
# Probe 179 (0.84845 0.50229 0)
# Probe 180 (0.84906 0.57562 0)
# Probe 181 (0.81965 0.55912 0)
# Probe 182 (0.81883 0.59132 0)
# Probe 183 (0.79195 0.57468 0)
# Probe 184 (0.79054 0.60475 0)
# Probe 185 (0.63311 0.52543 0)
# Probe 186 (0.76535 0.58965 0)
# Probe 187 (0.76393 0.61802 0)
# Probe 188 (0.76782 0.56001 0)
# Probe 189 (0.73951 0.60345 0)
# Probe 190 (0.73775 0.63198 0)
# Probe 191 (0.61249 0.55029 0)
# Probe 192 (0.76545 0.64642 0)
# Probe 193 (0.73874 0.66118 0)
# Probe 194 (0.71206 0.64435 0)
# Probe 195 (0.71013 0.67264 0)
# Probe 196 (0.68694 0.65688 0)
# Probe 197 (0.58647 0.56826 0)
# Probe 198 (0.68398 0.68412 0)
# Probe 199 (0.66173 0.66902 0)
# Probe 200 (0.65887 0.69667 0)
# Probe 201 (0.6369 0.68114 0)
# Probe 202 (0.63415 0.70829 0)
# Probe 203 (0.61231 0.69287 0)
# Probe 204 (0.54578 0.57873 0)
# Probe 205 (0.6096 0.71977 0)
# Probe 206 (0.58784 0.70449 0)
# Probe 207 (0.73424 0.68817 0)
# Probe 208 (0.58512 0.73162 0)
# Probe 209 (0.56307 0.71603 0)
# Probe 210 (0.65763 0.72329 0)
# Probe 211 (0.56004 0.74368 0)
# Probe 212 (0.53761 0.7274 0)
# Probe 213 (0.54083 0.70105 0)
# Probe 214 (0.51653 0.71144 0)
# Probe 215 (0.50364 0.57184 0)
# Probe 216 (0.51278 0.73807 0)
# Probe 217 (0.49118 0.7214 0)
# Probe 218 (0.48693 0.7495 0)
# Probe 219 (0.46444 0.73171 0)
# Probe 220 (0.46895 0.70401 0)
# Probe 221 (0.44245 0.71383 0)
# Probe 222 (0.44677 0.68689 0)
# Probe 223 (0.42104 0.69632 0)
# Probe 224 (0.47589 0.55759 0)
# Probe 225 (0.42542 0.67017 0)
# Probe 226 (0.4005 0.67937 0)
# Probe 227 (0.40465 0.65377 0)
# Probe 228 (0.38007 0.66281 0)
# Probe 229 (0.38469 0.63758 0)
# Probe 230 (0.35958 0.64635 0)
# Probe 231 (0.36405 0.62059 0)
# Probe 232 (0.35393 0.673 0)
# Probe 233 (0.44211 0.51632 0)
# Probe 234 (0.33871 0.62962 0)
# Probe 235 (0.3433 0.60463 0)
# Probe 236 (0.41671 0.72435 0)
# Probe 237 (0.31735 0.61265 0)
# Probe 238 (0.32155 0.58545 0)
# Probe 239 (0.29606 0.59555 0)
# Probe 240 (0.29968 0.56663 0)
# Probe 241 (0.29078 0.62376 0)
# Probe 242 (0.2758 0.57831 0)
# Probe 243 (0.27918 0.54918 0)
# Probe 244 (0.30411 0.53842 0)
# Probe 245 (0.28322 0.52125 0)
# Probe 246 (0.43101 0.47594 0)
# Probe 247 (0.30819 0.51212 0)
# Probe 248 (0.28835 0.49505 0)
# Probe 249 (0.31221 0.48639 0)
# Probe 250 (0.29294 0.46983 0)
# Probe 251 (0.43475 0.4444 0)
# Probe 252 (0.31862 0.46036 0)
# Probe 253 (0.29777 0.44517 0)
# Probe 254 (0.32021 0.43505 0)
# Probe 255 (0.30185 0.42124 0)
# Probe 256 (0.3243 0.41192 0)
# Probe 257 (0.30607 0.39735 0)
# Probe 258 (0.32906 0.38851 0)
# Probe 259 (0.31093 0.3728 0)
# Probe 260 (0.334 0.36388 0)
# Probe 261 (0.31555 0.34731 0)
# Probe 262 (0.33941 0.33777 0)
# Probe 263 (0.46714 0.38948 0)
# Probe 264 (0.31846 0.32015 0)
# Probe 265 (0.34486 0.3103 0)
# Probe 266 (0.44704 0.41428 0)
# Probe 267 (0.28965 0.37894 0)
# Probe 268 (0.27711 0.45393 0)
# Probe 269 (0.32248 0.29171 0)
# Probe 270 (0.35039 0.28219 0)
# Probe 271 (0.29583 0.30061 0)
# Probe 272 (0.30022 0.27109 0)
# Probe 273 (0.25851 0.52975 0)
# Probe 274 (0.37406 0.30334 0)
# Probe 275 (0.37819 0.27329 0)
# Probe 276 (0.40004 0.29104 0)
# Probe 277 (0.49445 0.37214 0)
# Probe 278 (0.40475 0.26418 0)
# Probe 279 (0.42365 0.28171 0)
# Probe 280 (0.4301 0.25567 0)
# Probe 281 (0.45047 0.27339 0)
# Probe 282 (0.5235 0.36344 0)
# Probe 283 (0.45554 0.24757 0)
# Probe 284 (0.47632 0.2634 0)
# Probe 285 (0.47912 0.23833 0)
# Probe 286 (0.49956 0.25577 0)
# Probe 287 (0.64849 0.4756 0)
# Probe 288 (0.4597 0.54278 0)
# Probe 289 (0.52385 0.57727 0)
# Probe 290 (0.56637 0.5762 0)
# Probe 291 (0.43481 0.49679 0)
# Probe 292 (0.50529 0.23057 0)
# Probe 293 (0.52588 0.25172 0)
# Probe 294 (0.55608 0.36298 0)
# Probe 295 (0.43602 0.22882 0)
# Probe 296 (0.58351 0.76026 0)
# Probe 297 (0.27 0.28118 0)
# Probe 298 (0.53063 0.22228 0)
# Probe 299 (0.55074 0.23959 0)
# Probe 300 (0.32719 0.52722 0)
# Probe 301 (0.55621 0.21268 0)
# Probe 302 (0.57774 0.23156 0)
# Probe 303 (0.58319 0.20226 0)
# Probe 304 (0.60432 0.22248 0)
# Probe 305 (0.58663 0.37189 0)
# Probe 306 (0.599 0.2504 0)
# Probe 307 (0.62506 0.24192 0)
# Probe 308 (0.63298 0.41466 0)
# Probe 309 (0.61288 0.38989 0)
# Probe 310 (0.64305 0.43323 0)
# Probe 311 (0.64761 0.45428 0)
# Probe 312 (0.27583 0.24869 0)
# Probe 313 (0.61935 0.2689 0)
# Probe 314 (0.64598 0.26157 0)
# Probe 315 (0.6523 0.23332 0)
# Probe 316 (0.67288 0.25348 0)
# Probe 317 (0.66638 0.28131 0)
# Probe 318 (0.69304 0.27371 0)
# Probe 319 (0.68585 0.30037 0)
# Probe 320 (0.71245 0.29357 0)
# Probe 321 (0.7054 0.31966 0)
# Probe 322 (0.73191 0.31313 0)
# Probe 323 (0.72508 0.33953 0)
# Probe 324 (0.72083 0.26825 0)
# Probe 325 (0.75174 0.33223 0)
# Probe 326 (0.74465 0.35948 0)
# Probe 327 (0.77173 0.35199 0)
# Probe 328 (0.77931 0.32356 0)
# Probe 329 (0.47152 0.67663 0)
# Probe 330 (0.35643 0.35448 0)
# Probe 331 (0.6889 0.62647 0)
# Probe 332 (0.36824 0.59618 0)
# Probe 333 (0.59271 0.67976 0)
# Probe 334 (0.34573 0.40363 0)
# Probe 335 (0.33361 0.48021 0)
# Probe 336 (0.42794 0.64598 0)
# Probe 337 (0.24224 0.26087 0)
# Probe 338 (0.76401 0.37938 0)
# Probe 339 (0.73426 0.38623 0)
# Probe 340 (0.75531 0.40536 0)
# Probe 341 (0.64011 0.65241 0)
# Probe 342 (0.54504 0.26514 0)
# Probe 343 (0.78713 0.40028 0)
# Probe 344 (0.41701 0.30725 0)
# Probe 345 (0.73075 0.41242 0)
# Probe 346 (0.74811 0.42974 0)
# Probe 347 (0.24718 0.22627 0)
# Probe 348 (0.23976 0.29708 0)
# Probe 349 (0.69899 0.34592 0)
# Probe 350 (0.28336 0.21334 0)
# Probe 351 (0.66042 0.30696 0)
# Probe 352 (0.5081 0.20233 0)
# Probe 353 (0.72504 0.43539 0)
# Probe 354 (0.49587 0.27935 0)
# Probe 355 (0.45947 0.76108 0)
# Probe 356 (0.48345 0.78107 0)
# Probe 357 (0.4538 0.79283 0)
# Probe 358 (0.74122 0.45248 0)
# Probe 359 (0.21253 0.23983 0)
# Probe 360 (0.61074 0.19328 0)
# Probe 361 (0.7162 0.4569 0)
# Probe 362 (0.80118 0.34545 0)
# Probe 363 (0.80945 0.31305 0)
# Probe 364 (0.68074 0.22454 0)
# Probe 365 (0.81689 0.62837 0)
# Probe 366 (0.83321 0.33929 0)
# Probe 367 (0.70562 0.41934 0)
# Probe 368 (0.48099 0.81459 0)
# Probe 369 (0.44985 0.82726 0)
# Probe 370 (0.42247 0.80533 0)
# Probe 371 (0.25303 0.18959 0)
# Probe 372 (0.38526 0.24416 0)
# Probe 373 (0.76311 0.44803 0)
# Probe 374 (0.73449 0.47447 0)
# Probe 375 (0.71282 0.47891 0)
# Probe 376 (0.56009 0.18167 0)
# Probe 377 (0.4172 0.8412 0)
# Probe 378 (0.38777 0.81824 0)
# Probe 379 (0.28986 0.17646 0)
# Probe 380 (0.72813 0.49484 0)
# Probe 381 (0.7047 0.49928 0)
# Probe 382 (0.74945 0.49028 0)
# Probe 383 (0.84278 0.30402 0)
# Probe 384 (0.81717 0.27983 0)
# Probe 385 (0.85204 0.26877 0)
# Probe 386 (0.82401 0.24274 0)
# Probe 387 (0.25915 0.1512 0)
# Probe 388 (0.22486 0.16603 0)
# Probe 389 (0.69667 0.46714 0)
# Probe 390 (0.86871 0.32914 0)
# Probe 391 (0.85801 0.3663 0)
# Probe 392 (0.72164 0.51465 0)
# Probe 393 (0.70232 0.5197 0)
# Probe 394 (0.71626 0.53415 0)
# Probe 395 (0.69716 0.5382 0)
# Probe 396 (0.68428 0.52527 0)
# Probe 397 (0.68008 0.54168 0)
# Probe 398 (0.69103 0.55601 0)
# Probe 399 (0.67209 0.55736 0)
# Probe 400 (0.4784 0.8488 0)
# Probe 401 (0.51101 0.83406 0)
# Probe 402 (0.38315 0.85535 0)
# Probe 403 (0.35323 0.83209 0)
# Probe 404 (0.35836 0.79489 0)
# Probe 405 (0.32381 0.80851 0)
# Probe 406 (0.3295 0.77152 0)
# Probe 407 (0.29421 0.78426 0)
# Probe 408 (0.28817 0.82267 0)
# Probe 409 (0.25822 0.79789 0)
# Probe 410 (0.26465 0.75935 0)
# Probe 411 (0.22817 0.77271 0)
# Probe 412 (0.23521 0.73322 0)
# Probe 413 (0.19833 0.74727 0)
# Probe 414 (0.20539 0.70742 0)
# Probe 415 (0.19222 0.78539 0)
# Probe 416 (0.25108 0.83736 0)
# Probe 417 (0.16718 0.72098 0)
# Probe 418 (0.17526 0.68253 0)
# Probe 419 (0.27646 0.71832 0)
# Probe 420 (0.88201 0.59499 0)
# Probe 421 (0.50754 0.87278 0)
# Probe 422 (0.54159 0.85676 0)
# Probe 423 (0.68513 0.57277 0)
# Probe 424 (0.66668 0.5757 0)
# Probe 425 (0.65476 0.5634 0)
# Probe 426 (0.6495 0.57927 0)
# Probe 427 (0.86126 0.2317 0)
# Probe 428 (0.83248 0.20511 0)
# Probe 429 (0.79509 0.21665 0)
# Probe 430 (0.80262 0.17956 0)
# Probe 431 (0.8453 0.16289 0)
# Probe 432 (0.76711 0.18983 0)
# Probe 433 (0.77357 0.15334 0)
# Probe 434 (0.73681 0.16511 0)
# Probe 435 (0.21196 0.66778 0)
# Probe 436 (0.18259 0.64327 0)
# Probe 437 (0.14543 0.65686 0)
# Probe 438 (0.15364 0.61808 0)
# Probe 439 (0.19008 0.60541 0)
# Probe 440 (0.16208 0.58022 0)
# Probe 441 (0.59497 0.27643 0)
# Probe 442 (0.61267 0.29303 0)
# Probe 443 (0.59079 0.29972 0)
# Probe 444 (0.60586 0.31395 0)
# Probe 445 (0.5869 0.31985 0)
# Probe 446 (0.60064 0.33524 0)
# Probe 447 (0.57239 0.307 0)
# Probe 448 (0.56933 0.32541 0)
# Probe 449 (0.5556 0.31423 0)
# Probe 450 (0.6187 0.32809 0)
# Probe 451 (0.61499 0.34569 0)
# Probe 452 (0.63076 0.3408 0)
# Probe 453 (0.62628 0.35702 0)
# Probe 454 (0.64259 0.35309 0)
# Probe 455 (0.63805 0.36889 0)
# Probe 456 (0.65437 0.36494 0)
# Probe 457 (0.65001 0.38116 0)
# Probe 458 (0.66622 0.37689 0)
# Probe 459 (0.66186 0.39331 0)
# Probe 460 (0.55288 0.3309 0)
# Probe 461 (0.53971 0.32061 0)
# Probe 462 (0.66894 0.52882 0)
# Probe 463 (0.67242 0.51431 0)
# Probe 464 (0.67812 0.38911 0)
# Probe 465 (0.67319 0.40535 0)
# Probe 466 (0.89577 0.35601 0)
# Probe 467 (0.29726 0.13994 0)
# Probe 468 (0.32697 0.16404 0)
# Probe 469 (0.27041 0.11016 0)
# Probe 470 (0.40912 0.87986 0)
# Probe 471 (0.28314 0.86283 0)
# Probe 472 (0.51992 0.68639 0)
# Probe 473 (0.54204 0.67656 0)
# Probe 474 (0.52223 0.66355 0)
# Probe 475 (0.54138 0.65457 0)
# Probe 476 (0.52483 0.64316 0)
# Probe 477 (0.54179 0.63497 0)
# Probe 478 (0.52731 0.62428 0)
# Probe 479 (0.5111 0.63112 0)
# Probe 480 (0.51325 0.61443 0)
# Probe 481 (0.49799 0.62074 0)
# Probe 482 (0.54293 0.61745 0)
# Probe 483 (0.55701 0.62679 0)
# Probe 484 (0.55796 0.61012 0)
# Probe 485 (0.57214 0.61836 0)
# Probe 486 (0.49903 0.6021 0)
# Probe 487 (0.48471 0.61012 0)
# Probe 488 (0.48245 0.62727 0)
# Probe 489 (0.46928 0.61636 0)
# Probe 490 (0.47171 0.59978 0)
# Probe 491 (0.45639 0.60557 0)
# Probe 492 (0.45933 0.58955 0)
# Probe 493 (0.44381 0.59499 0)
# Probe 494 (0.44677 0.57904 0)
# Probe 495 (0.43123 0.58438 0)
# Probe 496 (0.43553 0.56605 0)
# Probe 497 (0.41877 0.57331 0)
# Probe 498 (0.42148 0.55722 0)
# Probe 499 (0.40566 0.56279 0)
# Probe 500 (0.40887 0.54738 0)
# Probe 501 (0.39236 0.55198 0)
# Probe 502 (0.39788 0.53464 0)
# Probe 503 (0.41613 0.59056 0)
# Probe 504 (0.37846 0.54068 0)
# Probe 505 (0.38216 0.52289 0)
# Probe 506 (0.39858 0.51673 0)
# Probe 507 (0.38511 0.50548 0)
# Probe 508 (0.40104 0.50057 0)
# Probe 509 (0.38884 0.48957 0)
# Probe 510 (0.57136 0.63531 0)
# Probe 511 (0.58639 0.62685 0)
# Probe 512 (0.58695 0.60994 0)
# Probe 513 (0.60135 0.61845 0)
# Probe 514 (0.6012 0.60138 0)
# Probe 515 (0.61598 0.60996 0)
# Probe 516 (0.3678 0.51042 0)
# Probe 517 (0.40389 0.48536 0)
# Probe 518 (0.39232 0.47471 0)
# Probe 519 (0.4091 0.47049 0)
# Probe 520 (0.39602 0.4594 0)
# Probe 521 (0.38048 0.46441 0)
# Probe 522 (0.38404 0.44876 0)
# Probe 523 (0.39928 0.44389 0)
# Probe 524 (0.38769 0.43311 0)
# Probe 525 (0.40303 0.42865 0)
# Probe 526 (0.39144 0.41759 0)
# Probe 527 (0.40979 0.41329 0)
# Probe 528 (0.3956 0.40184 0)
# Probe 529 (0.41137 0.3971 0)
# Probe 530 (0.39903 0.38574 0)
# Probe 531 (0.41581 0.38038 0)
# Probe 532 (0.40295 0.36858 0)
# Probe 533 (0.41975 0.36382 0)
# Probe 534 (0.43219 0.37539 0)
# Probe 535 (0.43607 0.35965 0)
# Probe 536 (0.36773 0.45345 0)
# Probe 537 (0.40682 0.35049 0)
# Probe 538 (0.24431 0.87838 0)
# Probe 539 (0.61598 0.59286 0)
# Probe 540 (0.55656 0.77307 0)
# Probe 541 (0.5816 0.79341 0)
# Probe 542 (0.60987 0.77742 0)
# Probe 543 (0.60901 0.81264 0)
# Probe 544 (0.63899 0.79446 0)
# Probe 545 (0.63757 0.83004 0)
# Probe 546 (0.66954 0.81289 0)
# Probe 547 (0.66668 0.84942 0)
# Probe 548 (0.6993 0.83092 0)
# Probe 549 (0.70191 0.79512 0)
# Probe 550 (0.73298 0.81388 0)
# Probe 551 (0.73495 0.77764 0)
# Probe 552 (0.76734 0.79772 0)
# Probe 553 (0.76232 0.84089 0)
# Probe 554 (0.80183 0.81825 0)
# Probe 555 (0.80301 0.77799 0)
# Probe 556 (0.83812 0.79873 0)
# Probe 557 (0.83851 0.75762 0)
# Probe 558 (0.83805 0.84062 0)
# Probe 559 (0.63404 0.86622 0)
# Probe 560 (0.80417 0.73752 0)
# Probe 561 (0.83732 0.71569 0)
# Probe 562 (0.87405 0.73711 0)
# Probe 563 (0.66208 0.59476 0)
# Probe 564 (0.87201 0.69702 0)
# Probe 565 (0.33498 0.12775 0)
# Probe 566 (0.36391 0.15159 0)
# Probe 567 (0.37144 0.11314 0)
# Probe 568 (0.40064 0.13869 0)
# Probe 569 (0.88431 0.39274 0)
# Probe 570 (0.42422 0.54335 0)
# Probe 571 (0.63888 0.56642 0)
# Probe 572 (0.70443 0.57011 0)
# Probe 573 (0.11502 0.62963 0)
# Probe 574 (0.6581 0.34816 0)
# Probe 575 (0.47421 0.58461 0)
# Probe 576 (0.66483 0.88805 0)
# Probe 577 (0.53832 0.33667 0)
# Probe 578 (0.52362 0.32902 0)
# Probe 579 (0.52682 0.31021 0)
# Probe 580 (0.51109 0.31642 0)
# Probe 581 (0.50776 0.33322 0)
# Probe 582 (0.4954 0.32302 0)
# Probe 583 (0.4939 0.33931 0)
# Probe 584 (0.48091 0.32998 0)
# Probe 585 (0.4803 0.34838 0)
# Probe 586 (0.46629 0.33677 0)
# Probe 587 (0.46731 0.31914 0)
# Probe 588 (0.64336 0.55262 0)
# Probe 589 (0.60089 0.63629 0)
# Probe 590 (0.46653 0.63359 0)
# Probe 591 (0.413 0.51114 0)
# Probe 592 (0.41835 0.42653 0)
# Probe 593 (0.38338 0.38943 0)
# Probe 594 (0.41076 0.09911 0)
# Probe 595 (0.43879 0.12643 0)
# Probe 596 (0.65686 0.5177 0)
# Probe 597 (0.19772 0.56851 0)
# Probe 598 (0.17037 0.54269 0)
# Probe 599 (0.13577 0.55479 0)
# Probe 600 (0.14394 0.51735 0)
# Probe 601 (0.17908 0.50581 0)
# Probe 602 (0.15208 0.4803 0)
# Probe 603 (0.18739 0.47026 0)
# Probe 604 (0.1611 0.44468 0)
# Probe 605 (0.19584 0.4348 0)
# Probe 606 (0.1698 0.40941 0)
# Probe 607 (0.20423 0.39957 0)
# Probe 608 (0.17878 0.37361 0)
# Probe 609 (0.14231 0.3839 0)
# Probe 610 (0.15189 0.34664 0)
# Probe 611 (0.11395 0.3573 0)
# Probe 612 (0.11586 0.4901 0)
# Probe 613 (0.12345 0.31779 0)
# Probe 614 (0.16231 0.30836 0)
# Probe 615 (0.13415 0.27846 0)
# Probe 616 (0.44782 0.3714 0)
# Probe 617 (0.44308 0.38637 0)
# Probe 618 (0.21395 0.3653 0)
# Probe 619 (0.39336 0.1754 0)
# Probe 620 (0.84746 0.40314 0)
# Probe 621 (0.87294 0.42866 0)
# Probe 622 (0.83794 0.43747 0)
# Probe 623 (0.74483 0.1265 0)
# Probe 624 (0.70754 0.1355 0)
# Probe 625 (0.61145 0.36125 0)
# Probe 626 (0.58723 0.59393 0)
# Probe 627 (0.36269 0.75881 0)
# Probe 628 (0.33602 0.7381 0)
# Probe 629 (0.20685 0.85443 0)
# Probe 630 (0.34748 0.87053 0)
# Probe 631 (0.65787 0.40925 0)
# Probe 632 (0.66836 0.4204 0)
# Probe 633 (0.8025 0.6962 0)
# Probe 634 (0.10572 0.66971 0)
# Probe 635 (0.69407 0.58712 0)
# Probe 636 (0.54385 0.60227 0)
# Probe 637 (0.73782 0.53101 0)
# Probe 638 (0.56582 0.34141 0)
# Probe 639 (0.78465 0.11513 0)
# Probe 640 (0.65906 0.20404 0)
# Probe 641 (0.47377 0.88598 0)
# Probe 642 (0.51396 0.59888 0)
# Probe 643 (0.7299 0.55083 0)
# Probe 644 (0.70511 0.75881 0)
# Probe 645 (0.44199 0.60962 0)
# Probe 646 (0.45237 0.32944 0)
# Probe 647 (0.37799 0.42266 0)
# Probe 648 (0.50483 0.34806 0)
# Probe 649 (0.4521 0.56462 0)
# Probe 650 (0.55583 0.59603 0)
# Probe 651 (0.87539 0.82106 0)
# Probe 652 (0.87496 0.86467 0)
# Probe 653 (0.22773 0.42459 0)
# Probe 654 (0.63515 0.38433 0)
# Probe 655 (0.3748 0.55879 0)
# Probe 656 (0.21292 0.49359 0)
# Probe 657 (0.62987 0.90586 0)
# Probe 658 (0.53945 0.89266 0)
# Probe 659 (0.6306 0.60135 0)
# Probe 660 (0.63163 0.61873 0)
# Probe 661 (0.35982 0.54696 0)
# Probe 662 (0.66102 0.92305 0)
# Probe 663 (0.36749 0.72326 0)
# Probe 664 (0.48141 0.64507 0)
# Probe 665 (0.36441 0.47396 0)
# Probe 666 (0.08314 0.32889 0)
# Probe 667 (0.07423 0.64343 0)
# Probe 668 (0.88933 0.2585 0)
# Probe 669 (0.89511 0.21539 0)
# Probe 670 (0.55746 0.29632 0)
# Probe 671 (0.76087 0.22726 0)
# Probe 672 (0.46552 0.35235 0)
# Probe 673 (0.6909 0.19536 0)
# Probe 674 (0.66447 0.17614 0)
# Probe 675 (0.27625 0.90428 0)
# Probe 676 (0.22381 0.59536 0)
# Probe 677 (0.65332 0.53267 0)
# Probe 678 (0.73838 0.74181 0)
# Probe 679 (0.47442 0.36049 0)
# Probe 680 (0.1079 0.39391 0)
# Probe 681 (0.83638 0.88543 0)
# Probe 682 (0.66217 0.50342 0)
# Probe 683 (0.67448 0.50016 0)
# Probe 684 (0.66532 0.49032 0)
# Probe 685 (0.67751 0.48631 0)
# Probe 686 (0.66788 0.4773 0)
# Probe 687 (0.90924 0.32074 0)
# Probe 688 (0.45232 0.31051 0)
# Probe 689 (0.23779 0.92031 0)
# Probe 690 (0.91022 0.71621 0)
# Probe 691 (0.9107 0.75932 0)
# Probe 692 (0.57441 0.87186 0)
# Probe 693 (0.37847 0.07302 0)
# Probe 694 (0.5031 0.58956 0)
# Probe 695 (0.35606 0.56635 0)
# Probe 696 (0.5594 0.66454 0)
# Probe 697 (0.49453 0.35418 0)
# Probe 698 (0.55411 0.80387 0)
# Probe 699 (0.55147 0.345 0)
# Probe 700 (0.53923 0.351 0)
# Probe 701 (0.68281 0.37284 0)
# Probe 702 (0.69644 0.38533 0)
# Probe 703 (0.87439 0.90832 0)
# Probe 704 (0.91495 0.88865 0)
# Probe 705 (0.9309 0.35053 0)
# Probe 706 (0.70929 0.72771 0)
# Probe 707 (0.52509 0.34395 0)
# Probe 708 (0.47129 0.30326 0)
# Probe 709 (0.62898 0.55513 0)
# Probe 710 (0.62582 0.56837 0)
# Probe 711 (0.63387 0.54295 0)
# Probe 712 (0.70674 0.22045 0)
# Probe 713 (0.4105 0.05371 0)
# Probe 714 (0.41251 0.52507 0)
# Probe 715 (0.42468 0.51973 0)
# Probe 716 (0.71521 0.0997 0)
# Probe 717 (0.67599 0.10971 0)
# Probe 718 (0.70346 0.44022 0)
# Probe 719 (0.68616 0.44634 0)
# Probe 720 (0.38943 0.35775 0)
# Probe 721 (0.39375 0.33699 0)
# Probe 722 (0.6215 0.37234 0)
# Probe 723 (0.60732 0.37346 0)
# Probe 724 (0.50009 0.67267 0)
# Probe 725 (0.684 0.41775 0)
# Probe 726 (0.42842 0.39094 0)
# Probe 727 (0.42522 0.40531 0)
# Probe 728 (0.63658 0.32508 0)
# Probe 729 (0.58192 0.33743 0)
# Probe 730 (0.57694 0.35082 0)
# Probe 731 (0.59147 0.35036 0)
# Probe 732 (0.44091 0.4017 0)
# Probe 733 (0.45067 0.39532 0)
# Probe 734 (0.46255 0.57494 0)
# Probe 735 (0.53151 0.78729 0)
# Probe 736 (0.86151 0.46274 0)
# Probe 737 (0.82733 0.47148 0)
# Probe 738 (0.81171 0.50177 0)
# Probe 739 (0.79476 0.47474 0)
# Probe 740 (0.78437 0.50395 0)
# Probe 741 (0.89678 0.457 0)
# Probe 742 (0.6456 0.39834 0)
# Probe 743 (0.63164 0.39798 0)
# Probe 744 (0.66556 0.6419 0)
# Probe 745 (0.68098 0.32414 0)
# Probe 746 (0.77198 0.72197 0)
# Probe 747 (0.57155 0.26096 0)
# Probe 748 (0.48519 0.59385 0)
# Probe 749 (0.48733 0.57925 0)
# Probe 750 (0.6365 0.76281 0)
# Probe 751 (0.64058 0.28991 0)
# Probe 752 (0.44745 0.66173 0)
# Probe 753 (0.4147 0.49643 0)
# Probe 754 (0.41836 0.48173 0)
# Probe 755 (0.43568 0.55032 0)
# Probe 756 (0.43873 0.53645 0)
# Probe 757 (0.5123 0.29554 0)
# Probe 758 (0.52947 0.29098 0)
# Probe 759 (0.32525 0.5542 0)
# Probe 760 (0.33035 0.50281 0)
# Probe 761 (0.35265 0.49215 0)
# Probe 762 (0.61626 0.66632 0)
# Probe 763 (0.35153 0.45871 0)
# Probe 764 (0.35445 0.44027 0)
# Probe 765 (0.6845 0.07482 0)
# Probe 766 (0.64282 0.07969 0)
# Probe 767 (0.63655 0.12129 0)
# Probe 768 (0.60607 0.09967 0)
# Probe 769 (0.59936 0.13533 0)
# Probe 770 (0.57058 0.11234 0)
# Probe 771 (0.70075 0.91053 0)
# Probe 772 (0.50467 0.36053 0)
# Probe 773 (0.65605 0.54796 0)
# Probe 774 (0.57112 0.60013 0)
# Probe 775 (0.95572 0.56873 0)
# Probe 776 (0.95046 0.6187 0)
# Probe 777 (0.91526 0.64728 0)
# Probe 778 (0.71575 0.6166 0)
# Probe 779 (0.47752 0.57085 0)
# Probe 780 (0.52808 0.60625 0)
# Probe 781 (0.53343 0.59265 0)
# Probe 782 (0.17776 0.26651 0)
# Probe 783 (0.14522 0.23897 0)
# Probe 784 (0.10562 0.24747 0)
# Probe 785 (0.11612 0.20739 0)
# Probe 786 (0.15725 0.19731 0)
# Probe 787 (0.12796 0.16543 0)
# Probe 788 (0.16992 0.15507 0)
# Probe 789 (0.14034 0.1226 0)
# Probe 790 (0.18675 0.11235 0)
# Probe 791 (0.09663 0.13091 0)
# Probe 792 (0.11153 0.08705 0)
# Probe 793 (0.65249 0.42439 0)
# Probe 794 (0.66351 0.43442 0)
# Probe 795 (0.79328 0.54643 0)
# Probe 796 (0.76681 0.52925 0)
# Probe 797 (0.68074 0.47272 0)
# Probe 798 (0.66907 0.46439 0)
# Probe 799 (0.60098 0.58435 0)
# Probe 800 (0.21925 0.45915 0)
# Probe 801 (0.24148 0.48193 0)
# Probe 802 (0.71932 0.36348 0)
# Probe 803 (0.22997 0.56112 0)
# Probe 804 (0.20613 0.52937 0)
# Probe 805 (0.41375 0.44002 0)
# Probe 806 (0.41041 0.45495 0)
# Probe 807 (0.41955 0.46301 0)
# Probe 808 (0.42386 0.45145 0)
# Probe 809 (0.69316 0.48334 0)
# Probe 810 (0.7417 0.57297 0)
# Probe 811 (0.57501 0.58464 0)
# Probe 812 (0.40799 0.63077 0)
# Probe 813 (0.39014 0.61153 0)
# Probe 814 (0.38783 0.5884 0)
# Probe 815 (0.27489 0.953 0)
# Probe 816 (0.63134 0.58315 0)
# Probe 817 (0.78918 0.25384 0)
# Probe 818 (0.21802 0.63065 0)
# Probe 819 (0.24589 0.65478 0)
# Probe 820 (0.24171 0.69278 0)
# Probe 821 (0.27522 0.67857 0)
# Probe 822 (0.30787 0.69538 0)
# Probe 823 (0.3061 0.66616 0)
# Probe 824 (0.35045 0.37974 0)
# Probe 825 (0.66527 0.61714 0)
# Probe 826 (0.57259 0.83009 0)
# Probe 827 (0.5246 0.04223 0)
# Probe 828 (0.49705 0.0817 0)
# Probe 829 (0.45227 0.08067 0)
# Probe 830 (0.25402 0.62144 0)
# Probe 831 (0.07503 0.21527 0)
# Probe 832 (0.39493 0.77701 0)
# Probe 833 (0.36175 0.32894 0)
# Probe 834 (0.62778 0.95179 0)
# Probe 835 (0.23608 0.39174 0)
# Probe 836 (0.24568 0.35916 0)
# Probe 837 (0.25582 0.41463 0)
# Probe 838 (0.6417 0.50639 0)
# Probe 839 (0.64711 0.48602 0)
# Probe 840 (0.35927 0.19324 0)
# Probe 841 (0.32071 0.20138 0)
# Probe 842 (0.34181 0.22877 0)
# Probe 843 (0.30825 0.23771 0)
# Probe 844 (0.4289 0.16351 0)
# Probe 845 (0.4642 0.15396 0)
# Probe 846 (0.45386 0.1851 0)
# Probe 847 (0.43775 0.43349 0)
# Probe 848 (0.44181 0.42333 0)
# Probe 849 (0.49324 0.56915 0)
# Probe 850 (0.51362 0.57498 0)
# Probe 851 (0.62164 0.54416 0)
# Probe 852 (0.60456 0.55705 0)
# Probe 853 (0.46726 0.55043 0)
# Probe 854 (0.52275 0.95953 0)
# Probe 855 (0.63782 0.51622 0)
# Probe 856 (0.64835 0.46486 0)
# Probe 857 (0.55625 0.57755 0)
# Probe 858 (0.45234 0.53477 0)
# Probe 859 (0.47535 0.38276 0)
# Probe 860 (0.46551 0.37837 0)
# Probe 861 (0.42639 0.50657 0)
# Probe 862 (0.57658 0.36832 0)
# Probe 863 (0.59603 0.37731 0)
# Probe 864 (0.59693 0.3645 0)
# Probe 865 (0.48482 0.37655 0)
# Probe 866 (0.56623 0.36532 0)
# Probe 867 (0.54531 0.36188 0)
# Probe 868 (0.42654 0.43683 0)
# Probe 869 (0.44626 0.526 0)
# Probe 870 (0.6382 0.42363 0)
# Probe 871 (0.75843 0.08311 0)
# Probe 872 (0.34212 0.70387 0)
# Probe 873 (0.44899 0.54469 0)
# Probe 874 (0.59576 0.56304 0)
# Probe 875 (0.60515 0.56843 0)
# Probe 876 (0.62314 0.03826 0)
# Probe 877 (0.43259 0.48595 0)
# Probe 878 (0.53495 0.58049 0)
# Probe 879 (0.62032 0.3976 0)
# Probe 880 (0.57669 0.57276 0)
# Probe 881 (0.587 0.57967 0)
# Probe 882 (0.4947 0.69543 0)
# Probe 883 (0.96071 0.22232 0)
# Probe 884 (0.64557 0.44369 0)
# Probe 885 (0.65606 0.44543 0)
# Probe 886 (0.42196 0.19914 0)
# Probe 887 (0.38986 0.21067 0)
# Probe 888 (0.50289 0.65088 0)
# Probe 889 (0.43064 0.77075 0)
# Probe 890 (0.80878 0.44523 0)
# Probe 891 (0.81582 0.41542 0)
# Probe 892 (0.81933 0.37922 0)
# Probe 893 (0.56599 0.68737 0)
# Probe 894 (0.51672 0.27306 0)
# Probe 895 (0.49243 0.30235 0)
# Probe 896 (0.30242 0.74929 0)
# Probe 897 (0.46535 0.56194 0)
# Probe 898 (0.77483 0.95783 0)
# Probe 899 (0.75047 0.91617 0)
# Probe 900 (0.73518 0.87662 0)
# Probe 901 (0.94923 0.73733 0)
# Probe 902 (0.04217 0.7753 0)
# Probe 903 (0.08411 0.79978 0)
# Probe 904 (0.08456 0.84776 0)
# Probe 905 (0.1235 0.82351 0)
# Probe 906 (0.12619 0.87035 0)
# Probe 907 (0.12215 0.77778 0)
# Probe 908 (0.08294 0.75325 0)
# Probe 909 (0.2247 0.33109 0)
# Probe 910 (0.25902 0.32916 0)
# Probe 911 (0.67029 0.77317 0)
# Probe 912 (0.08514 0.89549 0)
# Probe 913 (0.12778 0.91886 0)
# Probe 914 (0.17244 0.89536 0)
# Probe 915 (0.27902 0.0412 0)
# Probe 916 (0.12574 0.7359 0)
# Probe 917 (0.64716 0.60991 0)
# Probe 918 (0.7999 0.91093 0)
# Probe 919 (0.41192 0.33065 0)
# Probe 920 (0.42335 0.95709 0)
# Probe 921 (0.37425 0.9583 0)
# Probe 922 (0.34937 0.91574 0)
# Probe 923 (0.0409 0.47642 0)
# Probe 924 (0.08259 0.45553 0)
# Probe 925 (0.04092 0.52623 0)
# Probe 926 (0.07746 0.55004 0)
# Probe 927 (0.08454 0.59422 0)
# Probe 928 (0.04161 0.37289 0)
# Probe 929 (0.78339 0.28903 0)
# Probe 930 (0.75501 0.26812 0)
# Probe 931 (0.62888 0.16035 0)
# Probe 932 (0.76997 0.75911 0)
# Probe 933 (0.48562 0.17911 0)
# Probe 934 (0.50115 0.14781 0)
# Probe 935 (0.22857 0.04558 0)
# Probe 936 (0.64428 0.41278 0)
# Probe 937 (0.76455 0.68363 0)
# Probe 938 (0.79418 0.65916 0)
# Probe 939 (0.83601 0.67108 0)
# Probe 940 (0.85232 0.64006 0)
# Probe 941 (0.68927 0.50854 0)
# Probe 942 (0.18857 0.33774 0)
# Probe 943 (0.27724 0.35246 0)
# Probe 944 (0.87431 0.04291 0)
# Probe 945 (0.89932 0.08582 0)
# Probe 946 (0.95346 0.08099 0)
# Probe 947 (0.92334 0.12769 0)
# Probe 948 (0.87527 0.12477 0)
# Probe 949 (0.8991 0.16753 0)
# Probe 950 (0.8298 0.11919 0)
# Probe 951 (0.77014 0.88013 0)
# Probe 952 (0.71387 0.39813 0)
# Probe 953 (0.04543 0.1284 0)
# Probe 954 (0.29962 0.07869 0)
# Probe 955 (0.16215 0.84407 0)
# Probe 956 (0.56435 0.14769 0)
# Probe 957 (0.53567 0.12888 0)
# Probe 958 (0.53482 0.16331 0)
# Probe 959 (0.43547 0.41417 0)
# Probe 960 (0.34784 0.51629 0)
# Probe 961 (0.04172 0.67775 0)
# Probe 962 (0.42468 0.34572 0)
# Probe 963 (0.43082 0.42519 0)
# Probe 964 (0.54104 0.08607 0)
# Probe 965 (0.20047 0.30191 0)
# Probe 966 (0.04249 0.8736 0)
# Probe 967 (0.47635 0.20957 0)
# Probe 968 (0.43796 0.50691 0)
# Probe 969 (0.37145 0.49239 0)
# Probe 970 (0.12681 0.04238 0)