# Probe 0 (0 0 0)
# Probe 1 (1 0 0)
# Probe 2 (1 1 0)
# Probe 3 (0 1 0)
# Probe 4 (0.75 0.38 0)
# Probe 5 (0.65 0.28 0)
# Probe 6 (0.55 0.38 0)
# Probe 7 (0.65 0.48 0)
# Probe 8 (0.05 0 0)
# Probe 9 (0.1 0 0)
# Probe 10 (0.15 0 0)
# Probe 11 (0.2 0 0)
# Probe 12 (0.25 0 0)
# Probe 13 (0.3 0 0)
# Probe 14 (0.35 0 0)
# Probe 15 (0.4 0 0)
# Probe 16 (0.45 0 0)
# Probe 17 (0.5 0 0)
# Probe 18 (0.55 0 0)
# Probe 19 (0.6 0 0)
# Probe 20 (0.65 0 0)
# Probe 21 (0.7 0 0)
# Probe 22 (0.75 0 0)
# Probe 23 (0.8 0 0)
# Probe 24 (0.85 0 0)
# Probe 25 (0.9 0 0)
# Probe 26 (0.95 0 0)
# Probe 27 (1 0.05 0)
# Probe 28 (1 0.1 0)
# Probe 29 (1 0.15 0)
# Probe 30 (1 0.2 0)
# Probe 31 (1 0.25 0)
# Probe 32 (1 0.3 0)
# Probe 33 (1 0.35 0)
# Probe 34 (1 0.4 0)
# Probe 35 (1 0.45 0)
# Probe 36 (1 0.5 0)
# Probe 37 (1 0.55 0)
# Probe 38 (1 0.6 0)
# Probe 39 (1 0.65 0)
# Probe 40 (1 0.7 0)
# Probe 41 (1 0.75 0)
# Probe 42 (1 0.8 0)
# Probe 43 (1 0.85 0)
# Probe 44 (1 0.9 0)
# Probe 45 (1 0.95 0)
# Probe 46 (0.95 1 0)
# Probe 47 (0.9 1 0)
# Probe 48 (0.85 1 0)
# Probe 49 (0.8 1 0)
# Probe 50 (0.75 1 0)
# Probe 51 (0.7 1 0)
# Probe 52 (0.65 1 0)
# Probe 53 (0.6 1 0)
# Probe 54 (0.55 1 0)
# Probe 55 (0.5 1 0)
# Probe 56 (0.45 1 0)
# Probe 57 (0.4 1 0)
# Probe 58 (0.35 1 0)
# Probe 59 (0.3 1 0)
# Probe 60 (0.25 1 0)
# Probe 61 (0.2 1 0)
# Probe 62 (0.15 1 0)
# Probe 63 (0.1 1 0)
# Probe 64 (0.05 1 0)
# Probe 65 (0 0.95 0)
# Probe 66 (0 0.9 0)
# Probe 67 (0 0.85 0)
# Probe 68 (0 0.8 0)
# Probe 69 (0 0.75 0)
# Probe 70 (0 0.7 0)
# Probe 71 (0 0.65 0)
# Probe 72 (0 0.6 0)
# Probe 73 (0 0.55 0)
# Probe 74 (0 0.5 0)
# Probe 75 (0 0.45 0)
# Probe 76 (0 0.4 0)
# Probe 77 (0 0.35 0)
# Probe 78 (0 0.3 0)
# Probe 79 (0 0.25 0)
# Probe 80 (0 0.2 0)
# Probe 81 (0 0.15 0)
# Probe 82 (0 0.1 0)
# Probe 83 (0 0.05 0)
# Probe 84 (0.74952 0.3702 0)
# Probe 85 (0.74808 0.36049 0)
# Probe 86 (0.74569 0.35097 0)
# Probe 87 (0.74239 0.34173 0)
# Probe 88 (0.73819 0.33286 0)
# Probe 89 (0.73315 0.32444 0)
# Probe 90 (0.7273 0.31656 0)
# Probe 91 (0.72071 0.30929 0)
# Probe 92 (0.71344 0.3027 0)
# Probe 93 (0.70556 0.29685 0)
# Probe 94 (0.69714 0.29181 0)
# Probe 95 (0.68827 0.28761 0)
# Probe 96 (0.67903 0.28431 0)
# Probe 97 (0.66951 0.28192 0)
# Probe 98 (0.6598 0.28048 0)
# Probe 99 (0.6402 0.28048 0)
# Probe 100 (0.63049 0.28192 0)
# Probe 101 (0.62097 0.28431 0)
# Probe 102 (0.61173 0.28761 0)
# Probe 103 (0.60286 0.29181 0)
# Probe 104 (0.59444 0.29685 0)
# Probe 105 (0.58656 0.3027 0)
# Probe 106 (0.57929 0.30929 0)
# Probe 107 (0.5727 0.31656 0)
# Probe 108 (0.56685 0.32444 0)
# Probe 109 (0.56181 0.33286 0)
# Probe 110 (0.55761 0.34173 0)
# Probe 111 (0.55431 0.35097 0)
# Probe 112 (0.55192 0.36049 0)
# Probe 113 (0.55048 0.3702 0)
# Probe 114 (0.55048 0.3898 0)
# Probe 115 (0.55192 0.39951 0)
# Probe 116 (0.55431 0.40903 0)
# Probe 117 (0.55761 0.41827 0)
# Probe 118 (0.56181 0.42714 0)
# Probe 119 (0.56685 0.43556 0)
# Probe 120 (0.5727 0.44344 0)
# Probe 121 (0.57929 0.45071 0)
# Probe 122 (0.58656 0.4573 0)
# Probe 123 (0.59444 0.46315 0)
# Probe 124 (0.60286 0.46819 0)
# Probe 125 (0.61173 0.47239 0)
# Probe 126 (0.62097 0.47569 0)
# Probe 127 (0.63049 0.47808 0)
# Probe 128 (0.6402 0.47952 0)
# Probe 129 (0.6598 0.47952 0)
# Probe 130 (0.66951 0.47808 0)
# Probe 131 (0.67903 0.47569 0)
# Probe 132 (0.68827 0.47239 0)
# Probe 133 (0.69714 0.46819 0)
# Probe 134 (0.70556 0.46315 0)
# Probe 135 (0.71344 0.4573 0)
# Probe 136 (0.72071 0.45071 0)
# Probe 137 (0.7273 0.44344 0)
# Probe 138 (0.73315 0.43556 0)
# Probe 139 (0.73819 0.42714 0)
# Probe 140 (0.74239 0.41827 0)
# Probe 141 (0.74569 0.40903 0)
# Probe 142 (0.74808 0.39951 0)
# Probe 143 (0.74952 0.3898 0)
# Probe 144 (0.04081 0.62265 0)
# Probe 145 (0.375 0.9567 0)
# Probe 146 (0.03983 0.32546 0)
# Probe 147 (0.52697 0.96012 0)
# Probe 148 (0.725 0.9567 0)
# Probe 149 (0.3216 0.04204 0)
# Probe 150 (0.95858 0.67844 0)
# Probe 151 (0.03894 0.47603 0)
# Probe 152 (0.82572 0.04127 0)
# Probe 153 (0.47035 0.04114 0)
# Probe 154 (0.22837 0.96453 0)
# Probe 155 (0.95435 0.21989 0)
# Probe 156 (0.75241 0.34461 0)
# Probe 157 (0.96305 0.52737 0)
# Probe 158 (0.75513 0.40633 0)
# Probe 159 (0.68023 0.04207 0)
# Probe 160 (0.0433 0.775 0)
# Probe 161 (0.75834 0.36499 0)
# Probe 162 (0.75925 0.38607 0)
# Probe 163 (0.04251 0.18263 0)
# Probe 164 (0.9567 0.825 0)
# Probe 165 (0.9581 0.32764 0)
# Probe 166 (0.95756 0.42072 0)
# Probe 167 (0.175 0.0433 0)
# Probe 168 (0.57345 0.03912 0)
# Probe 169 (0.62355 0.95775 0)
# Probe 170 (0.82762 0.9604 0)
# Probe 171 (0.0388 0.87433 0)
# Probe 172 (0.96028 0.12536 0)
# Probe 173 (0.12903 0.95336 0)
# Probe 174 (0.92123 0.95127 0)
# Probe 175 (0.04233 0.07509 0)
# Probe 176 (0.925 0.0433 0)
# Probe 177 (0.95262 0.37425 0)
# Probe 178 (0.91951 0.34675 0)
# Probe 179 (0.91919 0.30961 0)
# Probe 180 (0.8834 0.33002 0)
# Probe 181 (0.88648 0.36165 0)
# Probe 182 (0.88589 0.2954 0)
# Probe 183 (0.85772 0.31058 0)
# Probe 184 (0.85743 0.2823 0)
# Probe 185 (0.70559 0.28723 0)
# Probe 186 (0.73048 0.3058 0)
# Probe 187 (0.6867 0.27784 0)
# Probe 188 (0.6659 0.27279 0)
# Probe 189 (0.64487 0.27135 0)
# Probe 190 (0.83059 0.29992 0)
# Probe 191 (0.83156 0.27097 0)
# Probe 192 (0.83542 0.32499 0)
# Probe 193 (0.80914 0.28503 0)
# Probe 194 (0.80835 0.25922 0)
# Probe 195 (0.8306 0.24371 0)
# Probe 196 (0.80532 0.23159 0)
# Probe 197 (0.82991 0.21472 0)
# Probe 198 (0.80167 0.202 0)
# Probe 199 (0.77593 0.22376 0)
# Probe 200 (0.77338 0.19093 0)
# Probe 201 (0.74923 0.20903 0)
# Probe 202 (0.74638 0.17974 0)
# Probe 203 (0.72426 0.19703 0)
# Probe 204 (0.82711 0.18267 0)
# Probe 205 (0.72 0.16877 0)
# Probe 206 (0.69683 0.18972 0)
# Probe 207 (0.74136 0.14912 0)
# Probe 208 (0.78848 0.27341 0)
# Probe 209 (0.6935 0.158 0)
# Probe 210 (0.67197 0.17613 0)
# Probe 211 (0.67328 0.20187 0)
# Probe 212 (0.65174 0.19177 0)
# Probe 213 (0.6472 0.16603 0)
# Probe 214 (0.6275 0.18297 0)
# Probe 215 (0.61361 0.27773 0)
# Probe 216 (0.62171 0.15749 0)
# Probe 217 (0.6019 0.17512 0)
# Probe 218 (0.60687 0.19872 0)
# Probe 219 (0.58157 0.1929 0)
# Probe 220 (0.58544 0.29289 0)
# Probe 221 (0.57631 0.16753 0)
# Probe 222 (0.55796 0.18627 0)
# Probe 223 (0.56318 0.21034 0)
# Probe 224 (0.54074 0.20444 0)
# Probe 225 (0.54739 0.22685 0)
# Probe 226 (0.525 0.22135 0)
# Probe 227 (0.56295 0.31544 0)
# Probe 228 (0.51781 0.19905 0)
# Probe 229 (0.50203 0.21671 0)
# Probe 230 (0.51194 0.24126 0)
# Probe 231 (0.48693 0.23501 0)
# Probe 232 (0.4944 0.25695 0)
# Probe 233 (0.47142 0.25259 0)
# Probe 234 (0.54805 0.34332 0)
# Probe 235 (0.47912 0.27419 0)
# Probe 236 (0.45624 0.27032 0)
# Probe 237 (0.46396 0.29179 0)
# Probe 238 (0.44101 0.28783 0)
# Probe 239 (0.44867 0.30988 0)
# Probe 240 (0.42638 0.30537 0)
# Probe 241 (0.43353 0.32779 0)
# Probe 242 (0.41148 0.32169 0)
# Probe 243 (0.41856 0.34512 0)
# Probe 244 (0.39515 0.33952 0)
# Probe 245 (0.40256 0.36385 0)
# Probe 246 (0.37852 0.35966 0)
# Probe 247 (0.38645 0.38397 0)
# Probe 248 (0.37114 0.3327 0)
# Probe 249 (0.54295 0.39597 0)
# Probe 250 (0.36152 0.37925 0)
# Probe 251 (0.37048 0.40274 0)
# Probe 252 (0.39589 0.40811 0)
# Probe 253 (0.37828 0.42545 0)
# Probe 254 (0.40407 0.43212 0)
# Probe 255 (0.38674 0.45039 0)
# Probe 256 (0.55198 0.42595 0)
# Probe 257 (0.41428 0.45639 0)
# Probe 258 (0.39729 0.47625 0)
# Probe 259 (0.4233 0.4811 0)
# Probe 260 (0.40676 0.50107 0)
# Probe 261 (0.43279 0.50542 0)
# Probe 262 (0.41584 0.526 0)
# Probe 263 (0.44598 0.52812 0)
# Probe 264 (0.42571 0.55085 0)
# Probe 265 (0.45187 0.55555 0)
# Probe 266 (0.43462 0.57669 0)
# Probe 267 (0.46117 0.581 0)
# Probe 268 (0.40603 0.57413 0)
# Probe 269 (0.58551 0.46696 0)
# Probe 270 (0.4438 0.6036 0)
# Probe 271 (0.47207 0.60793 0)
# Probe 272 (0.36885 0.46944 0)
# Probe 273 (0.34425 0.39924 0)
# Probe 274 (0.45381 0.63053 0)
# Probe 275 (0.48265 0.63484 0)
# Probe 276 (0.50185 0.608 0)
# Probe 277 (0.51131 0.63789 0)
# Probe 278 (0.52889 0.61636 0)
# Probe 279 (0.53872 0.64204 0)
# Probe 280 (0.62357 0.48461 0)
# Probe 281 (0.55561 0.6211 0)
# Probe 282 (0.56551 0.64648 0)
# Probe 283 (0.58156 0.62548 0)
# Probe 284 (0.5916 0.64992 0)
# Probe 285 (0.60737 0.62942 0)
# Probe 286 (0.61725 0.65331 0)
# Probe 287 (0.63281 0.63269 0)
# Probe 288 (0.64263 0.65704 0)
# Probe 289 (0.65889 0.63612 0)
# Probe 290 (0.71489 0.46678 0)
# Probe 291 (0.68638 0.48232 0)
# Probe 292 (0.66768 0.66183 0)
# Probe 293 (0.6864 0.64023 0)
# Probe 294 (0.65532 0.48825 0)
# Probe 295 (0.41899 0.28185 0)
# Probe 296 (0.46242 0.2306 0)
# Probe 297 (0.46408 0.65852 0)
# Probe 298 (0.54879 0.66939 0)
# Probe 299 (0.43382 0.65354 0)
# Probe 300 (0.62681 0.67361 0)
# Probe 301 (0.69553 0.66732 0)
# Probe 302 (0.71504 0.64372 0)
# Probe 303 (0.7263 0.67129 0)
# Probe 304 (0.70515 0.69616 0)
# Probe 305 (0.44529 0.68396 0)
# Probe 306 (0.41236 0.67727 0)
# Probe 307 (0.54403 0.59904 0)
# Probe 308 (0.47 0.53702 0)
# Probe 309 (0.42466 0.70994 0)
# Probe 310 (0.38929 0.70285 0)
# Probe 311 (0.7386 0.70069 0)
# Probe 312 (0.74522 0.64732 0)
# Probe 313 (0.73124 0.61606 0)
# Probe 314 (0.62203 0.60925 0)
# Probe 315 (0.54184 0.3738 0)
# Probe 316 (0.60366 0.47797 0)
# Probe 317 (0.56267 0.44452 0)
# Probe 318 (0.73029 0.45278 0)
# Probe 319 (0.74302 0.43583 0)
# Probe 320 (0.43004 0.43691 0)
# Probe 321 (0.76345 0.62267 0)
# Probe 322 (0.75268 0.59429 0)
# Probe 323 (0.71668 0.72675 0)
# Probe 324 (0.44288 0.35172 0)
# Probe 325 (0.75183 0.73188 0)
# Probe 326 (0.40182 0.73579 0)
# Probe 327 (0.36623 0.72985 0)
# Probe 328 (0.35376 0.69547 0)
# Probe 329 (0.33028 0.72317 0)
# Probe 330 (0.31787 0.6879 0)
# Probe 331 (0.43814 0.74194 0)
# Probe 332 (0.29275 0.71649 0)
# Probe 333 (0.28061 0.68016 0)
# Probe 334 (0.78167 0.59855 0)
# Probe 335 (0.76928 0.57193 0)
# Probe 336 (0.30565 0.7529 0)
# Probe 337 (0.26678 0.7459 0)
# Probe 338 (0.74308 0.56842 0)
# Probe 339 (0.75855 0.54807 0)
# Probe 340 (0.78418 0.54995 0)
# Probe 341 (0.72897 0.7593 0)
# Probe 342 (0.7648 0.76588 0)
# Probe 343 (0.77306 0.52664 0)
# Probe 344 (0.7983 0.52884 0)
# Probe 345 (0.55051 0.1602 0)
# Probe 346 (0.78859 0.50591 0)
# Probe 347 (0.81248 0.5082 0)
# Probe 348 (0.80178 0.48635 0)
# Probe 349 (0.7948 0.62754 0)
# Probe 350 (0.69375 0.75294 0)
# Probe 351 (0.46957 0.31362 0)
# Probe 352 (0.4481 0.48478 0)
# Probe 353 (0.41557 0.7698 0)
# Probe 354 (0.45307 0.77565 0)
# Probe 355 (0.78847 0.73649 0)
# Probe 356 (0.82469 0.53178 0)
# Probe 357 (0.82659 0.48793 0)
# Probe 358 (0.81354 0.46435 0)
# Probe 359 (0.70571 0.7866 0)
# Probe 360 (0.67143 0.78155 0)
# Probe 361 (0.73421 0.54585 0)
# Probe 362 (0.72004 0.56394 0)
# Probe 363 (0.30563 0.6519 0)
# Probe 364 (0.26871 0.64407 0)
# Probe 365 (0.29373 0.6161 0)
# Probe 366 (0.25685 0.60805 0)
# Probe 367 (0.23106 0.63647 0)
# Probe 368 (0.21948 0.59945 0)
# Probe 369 (0.2457 0.57114 0)
# Probe 370 (0.20802 0.56238 0)
# Probe 371 (0.23427 0.53438 0)
# Probe 372 (0.49267 0.1929 0)
# Probe 373 (0.28048 0.78469 0)
# Probe 374 (0.2387 0.7765 0)
# Probe 375 (0.50123 0.27836 0)
# Probe 376 (0.19673 0.52547 0)
# Probe 377 (0.22292 0.49758 0)
# Probe 378 (0.7119 0.54018 0)
# Probe 379 (0.69853 0.55886 0)
# Probe 380 (0.69124 0.54006 0)
# Probe 381 (0.80242 0.77226 0)
# Probe 382 (0.77767 0.80265 0)
# Probe 383 (0.38904 0.5217 0)
# Probe 384 (0.33483 0.37336 0)
# Probe 385 (0.31608 0.39666 0)
# Probe 386 (0.30603 0.36708 0)
# Probe 387 (0.2857 0.3902 0)
# Probe 388 (0.27534 0.36007 0)
# Probe 389 (0.25377 0.38457 0)
# Probe 390 (0.24308 0.35293 0)
# Probe 391 (0.26656 0.32797 0)
# Probe 392 (0.23189 0.32015 0)
# Probe 393 (0.25776 0.29373 0)
# Probe 394 (0.22012 0.37865 0)
# Probe 395 (0.22046 0.2857 0)
# Probe 396 (0.24569 0.25841 0)
# Probe 397 (0.28325 0.26681 0)
# Probe 398 (0.2711 0.23141 0)
# Probe 399 (0.23487 0.2211 0)
# Probe 400 (0.30733 0.23998 0)
# Probe 401 (0.19566 0.31312 0)
# Probe 402 (0.18279 0.27713 0)
# Probe 403 (0.29662 0.20442 0)
# Probe 404 (0.3321 0.21294 0)
# Probe 405 (0.67908 0.55515 0)
# Probe 406 (0.18544 0.48868 0)
# Probe 407 (0.42871 0.80527 0)
# Probe 408 (0.46583 0.81139 0)
# Probe 409 (0.49162 0.78088 0)
# Probe 410 (0.50354 0.81689 0)
# Probe 411 (0.52838 0.78654 0)
# Probe 412 (0.54204 0.82143 0)
# Probe 413 (0.84081 0.46689 0)
# Probe 414 (0.82851 0.44445 0)
# Probe 415 (0.68129 0.81484 0)
# Probe 416 (0.72789 0.52687 0)
# Probe 417 (0.56759 0.23229 0)
# Probe 418 (0.55345 0.24609 0)
# Probe 419 (0.67295 0.5377 0)
# Probe 420 (0.66124 0.55157 0)
# Probe 421 (0.65578 0.53498 0)
# Probe 422 (0.64418 0.54832 0)
# Probe 423 (0.63913 0.52998 0)
# Probe 424 (0.62738 0.54524 0)
# Probe 425 (0.62193 0.52946 0)
# Probe 426 (0.611 0.54249 0)
# Probe 427 (0.60526 0.527 0)
# Probe 428 (0.59457 0.53942 0)
# Probe 429 (0.58856 0.52403 0)
# Probe 430 (0.57793 0.53663 0)
# Probe 431 (0.5721 0.52112 0)
# Probe 432 (0.56092 0.53421 0)
# Probe 433 (0.55496 0.51793 0)
# Probe 434 (0.5433 0.53159 0)
# Probe 435 (0.53736 0.51453 0)
# Probe 436 (0.54884 0.5014 0)
# Probe 437 (0.53174 0.49778 0)
# Probe 438 (0.19239 0.62848 0)
# Probe 439 (0.27623 0.54244 0)
# Probe 440 (0.82635 0.74153 0)
# Probe 441 (0.29615 0.42205 0)
# Probe 442 (0.81741 0.80972 0)
# Probe 443 (0.85701 0.44348 0)
# Probe 444 (0.16976 0.5538 0)
# Probe 445 (0.85487 0.48973 0)
# Probe 446 (0.7885 0.29532 0)
# Probe 447 (0.74238 0.32418 0)
# Probe 448 (0.32177 0.1774 0)
# Probe 449 (0.35728 0.18601 0)
# Probe 450 (0.28412 0.16913 0)
# Probe 451 (0.72755 0.22636 0)
# Probe 452 (0.59932 0.55456 0)
# Probe 453 (0.80445 0.44245 0)
# Probe 454 (0.81719 0.42362 0)
# Probe 455 (0.77787 0.48462 0)
# Probe 456 (0.54283 0.48515 0)
# Probe 457 (0.52623 0.48161 0)
# Probe 458 (0.66519 0.56991 0)
# Probe 459 (0.44073 0.84232 0)
# Probe 460 (0.40418 0.83581 0)
# Probe 461 (0.51485 0.49423 0)
# Probe 462 (0.51032 0.47746 0)
# Probe 463 (0.52111 0.46529 0)
# Probe 464 (0.50603 0.46089 0)
# Probe 465 (0.51631 0.44916 0)
# Probe 466 (0.50067 0.44513 0)
# Probe 467 (0.51138 0.43361 0)
# Probe 468 (0.49593 0.42959 0)
# Probe 469 (0.507 0.41835 0)
# Probe 470 (0.4914 0.41415 0)
# Probe 471 (0.5021 0.40244 0)
# Probe 472 (0.48617 0.39868 0)
# Probe 473 (0.50033 0.38644 0)
# Probe 474 (0.65586 0.21523 0)
# Probe 475 (0.67401 0.2239 0)
# Probe 476 (0.25302 0.81693 0)
# Probe 477 (0.21028 0.80916 0)
# Probe 478 (0.19603 0.76739 0)
# Probe 479 (0.47612 0.6877 0)
# Probe 480 (0.5723 0.25127 0)
# Probe 481 (0.55926 0.26365 0)
# Probe 482 (0.16731 0.80144 0)
# Probe 483 (0.81281 0.60143 0)
# Probe 484 (0.82726 0.63161 0)
# Probe 485 (0.84735 0.60382 0)
# Probe 486 (0.40176 0.64623 0)
# Probe 487 (0.48575 0.44241 0)
# Probe 488 (0.68397 0.52516 0)
# Probe 489 (0.14607 0.75907 0)
# Probe 490 (0.6433 0.13787 0)
# Probe 491 (0.77064 0.28553 0)
# Probe 492 (0.347 0.15047 0)
# Probe 493 (0.38278 0.15997 0)
# Probe 494 (0.56543 0.79201 0)
# Probe 495 (0.58003 0.82788 0)
# Probe 496 (0.85791 0.19762 0)
# Probe 497 (0.85534 0.16261 0)
# Probe 498 (0.82285 0.14749 0)
# Probe 499 (0.79086 0.84158 0)
# Probe 500 (0.83309 0.84925 0)
# Probe 501 (0.48159 0.38265 0)
# Probe 502 (0.49336 0.37086 0)
# Probe 503 (0.46921 0.39527 0)
# Probe 504 (0.56968 0.13951 0)
# Probe 505 (0.54144 0.13099 0)
# Probe 506 (0.58301 0.50971 0)
# Probe 507 (0.3419 0.247 0)
# Probe 508 (0.52481 0.52863 0)
# Probe 509 (0.18121 0.84357 0)
# Probe 510 (0.29568 0.82456 0)
# Probe 511 (0.15685 0.30583 0)
# Probe 512 (0.14311 0.26836 0)
# Probe 513 (0.37245 0.12349 0)
# Probe 514 (0.409 0.13318 0)
# Probe 515 (0.55189 0.75733 0)
# Probe 516 (0.5856 0.23872 0)
# Probe 517 (0.79568 0.41979 0)
# Probe 518 (0.80859 0.40295 0)
# Probe 519 (0.78391 0.43754 0)
# Probe 520 (0.82977 0.40584 0)
# Probe 521 (0.81816 0.38507 0)
# Probe 522 (0.86251 0.63664 0)
# Probe 523 (0.8847 0.60709 0)
# Probe 524 (0.63145 0.51658 0)
# Probe 525 (0.39131 0.19572 0)
# Probe 526 (0.55883 0.48856 0)
# Probe 527 (0.53158 0.54708 0)
# Probe 528 (0.58738 0.76268 0)
# Probe 529 (0.56892 0.54983 0)
# Probe 530 (0.4949 0.48795 0)
# Probe 531 (0.66014 0.23771 0)
# Probe 532 (0.64142 0.22832 0)
# Probe 533 (0.85279 0.12549 0)
# Probe 534 (0.88106 0.25691 0)
# Probe 535 (0.51778 0.85347 0)
# Probe 536 (0.50968 0.37276 0)
# Probe 537 (0.50475 0.35862 0)
# Probe 538 (0.48994 0.35461 0)
# Probe 539 (0.50139 0.34325 0)
# Probe 540 (0.52227 0.423 0)
# Probe 541 (0.67769 0.2432 0)
# Probe 542 (0.63298 0.56095 0)
# Probe 543 (0.54195 0.25929 0)
# Probe 544 (0.54754 0.27609 0)
# Probe 545 (0.20521 0.66543 0)
# Probe 546 (0.16481 0.65748 0)
# Probe 547 (0.53111 0.45274 0)
# Probe 548 (0.79652 0.38539 0)
# Probe 549 (0.80707 0.36653 0)
# Probe 550 (0.23228 0.41059 0)
# Probe 551 (0.1971 0.40479 0)
# Probe 552 (0.55326 0.47402 0)
# Probe 553 (0.51599 0.34748 0)
# Probe 554 (0.51221 0.33341 0)
# Probe 555 (0.32952 0.62388 0)
# Probe 556 (0.26783 0.85784 0)
# Probe 557 (0.30912 0.86644 0)
# Probe 558 (0.65672 0.74986 0)
# Probe 559 (0.7716 0.30532 0)
# Probe 560 (0.78781 0.31579 0)
# Probe 561 (0.70499 0.57938 0)
# Probe 562 (0.88822 0.17762 0)
# Probe 563 (0.76899 0.26474 0)
# Probe 564 (0.75188 0.2787 0)
# Probe 565 (0.318 0.58986 0)
# Probe 566 (0.58946 0.25619 0)
# Probe 567 (0.6017 0.24526 0)
# Probe 568 (0.39825 0.0953 0)
# Probe 569 (0.85922 0.81614 0)
# Probe 570 (0.87774 0.8568 0)
# Probe 571 (0.80686 0.65924 0)
# Probe 572 (0.57417 0.72976 0)
# Probe 573 (0.53972 0.72442 0)
# Probe 574 (0.13691 0.83566 0)
# Probe 575 (0.41513 0.87456 0)
# Probe 576 (0.51136 0.54411 0)
# Probe 577 (0.52043 0.56341 0)
# Probe 578 (0.78815 0.36819 0)
# Probe 579 (0.79647 0.35178 0)
# Probe 580 (0.86404 0.57065 0)
# Probe 581 (0.8275 0.36479 0)
# Probe 582 (0.67465 0.61535 0)
# Probe 583 (0.15243 0.61955 0)
# Probe 584 (0.12318 0.65018 0)
# Probe 585 (0.7719 0.32349 0)
# Probe 586 (0.45648 0.88112 0)
# Probe 587 (0.75043 0.25749 0)
# Probe 588 (0.73578 0.26911 0)
# Probe 589 (0.77772 0.35388 0)
# Probe 590 (0.56482 0.2799 0)
# Probe 591 (0.553 0.29114 0)
# Probe 592 (0.5374 0.2883 0)
# Probe 593 (0.5445 0.30407 0)
# Probe 594 (0.5276 0.29994 0)
# Probe 595 (0.43575 0.10496 0)
# Probe 596 (0.44311 0.14547 0)
# Probe 597 (0.47432 0.12268 0)
# Probe 598 (0.5326 0.31434 0)
# Probe 599 (0.17131 0.23784 0)
# Probe 600 (0.12985 0.22834 0)
# Probe 601 (0.15846 0.19621 0)
# Probe 602 (0.10317 0.26134 0)
# Probe 603 (0.32597 0.34636 0)
# Probe 604 (0.35244 0.59679 0)
# Probe 605 (0.34132 0.56467 0)
# Probe 606 (0.46357 0.37915 0)
# Probe 607 (0.45081 0.39163 0)
# Probe 608 (0.4575 0.40981 0)
# Probe 609 (0.69391 0.23071 0)
# Probe 610 (0.69241 0.25008 0)
# Probe 611 (0.77504 0.42036 0)
# Probe 612 (0.33569 0.11436 0)
# Probe 613 (0.75199 0.83283 0)
# Probe 614 (0.7635 0.8737 0)
# Probe 615 (0.72548 0.86331 0)
# Probe 616 (0.28361 0.89992 0)
# Probe 617 (0.90589 0.57571 0)
# Probe 618 (0.88882 0.54347 0)
# Probe 619 (0.18409 0.37178 0)
# Probe 620 (0.15938 0.39793 0)
# Probe 621 (0.6441 0.24869 0)
# Probe 622 (0.76727 0.43632 0)
# Probe 623 (0.77243 0.45175 0)
# Probe 624 (0.50579 0.52529 0)
# Probe 625 (0.81765 0.1106 0)
# Probe 626 (0.92228 0.61352 0)
# Probe 627 (0.61594 0.12793 0)
# Probe 628 (0.63882 0.10682 0)
# Probe 629 (0.52657 0.33741 0)
# Probe 630 (0.53024 0.35152 0)
# Probe 631 (0.64575 0.80957 0)
# Probe 632 (0.6554 0.84454 0)
# Probe 633 (0.11356 0.6109 0)
# Probe 634 (0.5692 0.10447 0)
# Probe 635 (0.52945 0.10094 0)
# Probe 636 (0.52392 0.15289 0)
# Probe 637 (0.43822 0.40691 0)
# Probe 638 (0.15345 0.8783 0)
# Probe 639 (0.56656 0.29525 0)
# Probe 640 (0.43091 0.91452 0)
# Probe 641 (0.6664 0.11956 0)
# Probe 642 (0.56662 0.47772 0)
# Probe 643 (0.11736 0.18569 0)
# Probe 644 (0.14625 0.15293 0)
# Probe 645 (0.1891 0.16349 0)
# Probe 646 (0.1011 0.1408 0)
# Probe 647 (0.17685 0.12088 0)
# Probe 648 (0.22038 0.12982 0)
# Probe 649 (0.56445 0.46426 0)
# Probe 650 (0.73628 0.28495 0)
# Probe 651 (0.499 0.56173 0)
# Probe 652 (0.65731 0.25271 0)
# Probe 653 (0.49978 0.32718 0)
# Probe 654 (0.14637 0.36273 0)
# Probe 655 (0.11978 0.39309 0)
# Probe 656 (0.13934 0.43381 0)
# Probe 657 (0.09239 0.42502 0)
# Probe 658 (0.10685 0.46687 0)
# Probe 659 (0.75861 0.44935 0)
# Probe 660 (0.19708 0.88448 0)
# Probe 661 (0.43119 0.38645 0)
# Probe 662 (0.136 0.68839 0)
# Probe 663 (0.09306 0.68242 0)
# Probe 664 (0.60604 0.73355 0)
# Probe 665 (0.62845 0.24069 0)
# Probe 666 (0.63107 0.25377 0)
# Probe 667 (0.10748 0.35768 0)
# Probe 668 (0.5167 0.31115 0)
# Probe 669 (0.57193 0.49007 0)
# Probe 670 (0.76223 0.4643 0)
# Probe 671 (0.74757 0.46095 0)
# Probe 672 (0.75249 0.47576 0)
# Probe 673 (0.73827 0.47428 0)
# Probe 674 (0.74337 0.48836 0)
# Probe 675 (0.72688 0.48464 0)
# Probe 676 (0.73322 0.50044 0)
# Probe 677 (0.71799 0.49757 0)
# Probe 678 (0.75035 0.50199 0)
# Probe 679 (0.77975 0.38223 0)
# Probe 680 (0.7838 0.40866 0)
# Probe 681 (0.33974 0.83631 0)
# Probe 682 (0.32283 0.91112 0)
# Probe 683 (0.84674 0.88886 0)
# Probe 684 (0.55099 0.46225 0)
# Probe 685 (0.18495 0.72794 0)
# Probe 686 (0.9549 0.28641 0)
# Probe 687 (0.72272 0.27839 0)
# Probe 688 (0.7203 0.26428 0)
# Probe 689 (0.21455 0.46293 0)
# Probe 690 (0.25032 0.47178 0)
# Probe 691 (0.60579 0.1005 0)
# Probe 692 (0.60387 0.26035 0)
# Probe 693 (0.5941 0.27225 0)
# Probe 694 (0.7127 0.48464 0)
# Probe 695 (0.70513 0.49538 0)
# Probe 696 (0.7068 0.5107 0)
# Probe 697 (0.42827 0.06707 0)
# Probe 698 (0.39531 0.0521 0)
# Probe 699 (0.75706 0.29719 0)
# Probe 700 (0.70463 0.24416 0)
# Probe 701 (0.47194 0.92044 0)
# Probe 702 (0.68064 0.25781 0)
# Probe 703 (0.54097 0.56437 0)
# Probe 704 (0.89245 0.90759 0)
# Probe 705 (0.95194 0.57783 0)
# Probe 706 (0.79105 0.13414 0)
# Probe 707 (0.7816 0.09364 0)
# Probe 708 (0.88619 0.21692 0)
# Probe 709 (0.69693 0.50304 0)
# Probe 710 (0.10675 0.72793 0)
# Probe 711 (0.06842 0.71163 0)
# Probe 712 (0.7573 0.31488 0)
# Probe 713 (0.59871 0.23108 0)
# Probe 714 (0.62604 0.22565 0)
# Probe 715 (0.75993 0.42491 0)
# Probe 716 (0.59055 0.70212 0)
# Probe 717 (0.78523 0.33552 0)
# Probe 718 (0.80202 0.32791 0)
# Probe 719 (0.54474 0.31852 0)
# Probe 720 (0.91829 0.40248 0)
# Probe 721 (0.91845 0.43971 0)
# Probe 722 (0.94875 0.46334 0)
# Probe 723 (0.91407 0.47653 0)
# Probe 724 (0.88699 0.42449 0)
# Probe 725 (0.62185 0.76002 0)
# Probe 726 (0.86115 0.35214 0)
# Probe 727 (0.86239 0.37785 0)
# Probe 728 (0.37664 0.86003 0)
# Probe 729 (0.81772 0.34297 0)
# Probe 730 (0.57714 0.26771 0)
# Probe 731 (0.66715 0.5219 0)
# Probe 732 (0.6528 0.5194 0)
# Probe 733 (0.64039 0.50565 0)
# Probe 734 (0.66332 0.50844 0)
# Probe 735 (0.5669 0.5039 0)
# Probe 736 (0.52747 0.43777 0)
# Probe 737 (0.53896 0.44257 0)
# Probe 738 (0.53516 0.42543 0)
# Probe 739 (0.53054 0.41491 0)
# Probe 740 (0.52011 0.40772 0)
# Probe 741 (0.51523 0.39393 0)
# Probe 742 (0.10688 0.87143 0)
# Probe 743 (0.08928 0.8217 0)
# Probe 744 (0.37008 0.63153 0)
# Probe 745 (0.62598 0.07422 0)
# Probe 746 (0.51966 0.36184 0)
# Probe 747 (0.52266 0.37461 0)
# Probe 748 (0.67722 0.51196 0)
# Probe 749 (0.67313 0.49785 0)
# Probe 750 (0.79299 0.46915 0)
# Probe 751 (0.72534 0.29213 0)
# Probe 752 (0.48687 0.29744 0)
# Probe 753 (0.81051 0.69862 0)
# Probe 754 (0.85159 0.70687 0)
# Probe 755 (0.86658 0.74647 0)
# Probe 756 (0.89129 0.71444 0)
# Probe 757 (0.90814 0.75333 0)
# Probe 758 (0.38663 0.59925 0)
# Probe 759 (0.85218 0.08106 0)
# Probe 760 (0.88757 0.10652 0)
# Probe 761 (0.52335 0.59701 0)
# Probe 762 (0.52597 0.39694 0)
# Probe 763 (0.75986 0.32863 0)
# Probe 764 (0.20537 0.08026 0)
# Probe 765 (0.25088 0.095 0)
# Probe 766 (0.74867 0.52978 0)
# Probe 767 (0.43896 0.46183 0)
# Probe 768 (0.46235 0.46764 0)
# Probe 769 (0.45491 0.44538 0)
# Probe 770 (0.47169 0.48725 0)
# Probe 771 (0.36636 0.2206 0)
# Probe 772 (0.39935 0.22768 0)
# Probe 773 (0.4225 0.20433 0)
# Probe 774 (0.37921 0.25512 0)
# Probe 775 (0.35334 0.27788 0)
# Probe 776 (0.4161 0.17049 0)
# Probe 777 (0.44607 0.18036 0)
# Probe 778 (0.47619 0.16473 0)
# Probe 779 (0.38198 0.28699 0)
# Probe 780 (0.43119 0.23487 0)
# Probe 781 (0.77177 0.36959 0)
# Probe 782 (0.48222 0.47124 0)
# Probe 783 (0.48084 0.50496 0)
# Probe 784 (0.45552 0.33214 0)
# Probe 785 (0.46259 0.35252 0)
# Probe 786 (0.47384 0.33462 0)
# Probe 787 (0.23433 0.17384 0)
# Probe 788 (0.52549 0.03788 0)
# Probe 789 (0.51491 0.26493 0)
# Probe 790 (0.29834 0.94319 0)
# Probe 791 (0.61602 0.51504 0)
# Probe 792 (0.62704 0.50452 0)
# Probe 793 (0.61446 0.50267 0)
# Probe 794 (0.63638 0.49485 0)
# Probe 795 (0.60051 0.51063 0)
# Probe 796 (0.59274 0.49703 0)
# Probe 797 (0.56976 0.59902 0)
# Probe 798 (0.59749 0.60567 0)
# Probe 799 (0.61258 0.5891 0)
# Probe 800 (0.63199 0.59004 0)
# Probe 801 (0.59056 0.58366 0)
# Probe 802 (0.57045 0.5787 0)
# Probe 803 (0.64799 0.60841 0)
# Probe 804 (0.45816 0.50477 0)
# Probe 805 (0.52052 0.28386 0)
# Probe 806 (0.74448 0.30554 0)
# Probe 807 (0.78641 0.24874 0)
# Probe 808 (0.30938 0.5573 0)
# Probe 809 (0.3325 0.53348 0)
# Probe 810 (0.66871 0.59057 0)
# Probe 811 (0.70724 0.21407 0)
# Probe 812 (0.53334 0.36442 0)
# Probe 813 (0.70066 0.52565 0)
# Probe 814 (0.54459 0.40613 0)
# Probe 815 (0.61349 0.4819 0)
# Probe 816 (0.6047 0.48867 0)
# Probe 817 (0.54841 0.41629 0)
# Probe 818 (0.55656 0.43516 0)
# Probe 819 (0.2605 0.50634 0)
# Probe 820 (0.28419 0.47942 0)
# Probe 821 (0.296 0.50922 0)
# Probe 822 (0.31738 0.48302 0)
# Probe 823 (0.30658 0.45411 0)
# Probe 824 (0.338 0.46132 0)
# Probe 825 (0.33005 0.42729 0)
# Probe 826 (0.5769 0.46039 0)
# Probe 827 (0.67635 0.48562 0)
# Probe 828 (0.683 0.49151 0)
# Probe 829 (0.69585 0.47844 0)
# Probe 830 (0.31986 0.27305 0)
# Probe 831 (0.33298 0.30333 0)
# Probe 832 (0.2974 0.3033 0)
# Probe 833 (0.73623 0.91199 0)
# Probe 834 (0.69234 0.89207 0)
# Probe 835 (0.77856 0.90905 0)
# Probe 836 (0.54226 0.38503 0)
# Probe 837 (0.24588 0.05033 0)
# Probe 838 (0.56908 0.45289 0)
# Probe 839 (0.73368 0.25072 0)
# Probe 840 (0.75045 0.23562 0)
# Probe 841 (0.56043 0.69848 0)
# Probe 842 (0.76994 0.4056 0)
# Probe 843 (0.51666 0.75192 0)
# Probe 844 (0.50088 0.71521 0)
# Probe 845 (0.95702 0.17444 0)
# Probe 846 (0.59428 0.47296 0)
# Probe 847 (0.58509 0.47732 0)
# Probe 848 (0.36333 0.30623 0)
# Probe 849 (0.76986 0.33863 0)
# Probe 850 (0.5697 0.30722 0)
# Probe 851 (0.55858 0.30432 0)
# Probe 852 (0.5563 0.32363 0)
# Probe 853 (0.54609 0.32824 0)
# Probe 854 (0.76378 0.3493 0)
# Probe 855 (0.93296 0.71864 0)
# Probe 856 (0.04704 0.42398 0)
# Probe 857 (0.03967 0.37242 0)
# Probe 858 (0.7588 0.39695 0)
# Probe 859 (0.17597 0.45236 0)
# Probe 860 (0.54253 0.35391 0)
# Probe 861 (0.27461 0.44676 0)
# Probe 862 (0.63425 0.27288 0)
# Probe 863 (0.70663 0.47464 0)
# Probe 864 (0.65542 0.27155 0)
# Probe 865 (0.67376 0.96042 0)
# Probe 866 (0.57376 0.95742 0)
# Probe 867 (0.59826 0.91721 0)
# Probe 868 (0.65203 0.91692 0)
# Probe 869 (0.62058 0.87724 0)
# Probe 870 (0.57669 0.88328 0)
# Probe 871 (0.72293 0.46036 0)
# Probe 872 (0.69634 0.28203 0)
# Probe 873 (0.69526 0.27134 0)
# Probe 874 (0.67639 0.27521 0)
# Probe 875 (0.87453 0.03992 0)
# Probe 876 (0.59428 0.28704 0)
# Probe 877 (0.58444 0.28189 0)
# Probe 878 (0.72393 0.04104 0)
# Probe 879 (0.70426 0.07833 0)
# Probe 880 (0.77646 0.04732 0)
# Probe 881 (0.62366 0.27493 0)
# Probe 882 (0.60363 0.28115 0)
# Probe 883 (0.16639 0.92368 0)
# Probe 884 (0.53844 0.4676 0)
# Probe 885 (0.37483 0.57038 0)
# Probe 886 (0.52898 0.69298 0)
# Probe 887 (0.47995 0.74585 0)
# Probe 888 (0.34213 0.65991 0)
# Probe 889 (0.75949 0.37529 0)
# Probe 890 (0.59415 0.48388 0)
# Probe 891 (0.90476 0.82209 0)
# Probe 892 (0.74841 0.42668 0)
# Probe 893 (0.73695 0.44449 0)
# Probe 894 (0.55347 0.91935 0)
# Probe 895 (0.40929 0.25532 0)
# Probe 896 (0.36522 0.54114 0)
# Probe 897 (0.35783 0.51427 0)
# Probe 898 (0.74342 0.08106 0)
# Probe 899 (0.72229 0.115 0)
# Probe 900 (0.5075 0.29642 0)
# Probe 901 (0.53183 0.24148 0)
# Probe 902 (0.70093 0.61808 0)
# Probe 903 (0.87703 0.67392 0)
# Probe 904 (0.6821 0.72114 0)
# Probe 905 (0.64992 0.71294 0)
# Probe 906 (0.04081 0.27604 0)
# Probe 907 (0.04156 0.22857 0)
# Probe 908 (0.04006 0.525 0)
# Probe 909 (0.03951 0.57447 0)
# Probe 910 (0.08286 0.54641 0)
# Probe 911 (0.79761 0.57439 0)
# Probe 912 (0.82771 0.57544 0)
# Probe 913 (0.61737 0.25275 0)
# Probe 914 (0.486 0.58237 0)
# Probe 915 (0.65057 0.26171 0)
# Probe 916 (0.87507 0.95674 0)
# Probe 917 (0.94474 0.9065 0)
# Probe 918 (0.14691 0.47759 0)
# Probe 919 (0.11437 0.50718 0)
# Probe 920 (0.22691 0.7377 0)
# Probe 921 (0.32208 0.79206 0)
# Probe 922 (0.35837 0.79586 0)
# Probe 923 (0.9508 0.75441 0)
# Probe 924 (0.92379 0.86508 0)
# Probe 925 (0.05045 0.13149 0)
# Probe 926 (0.13022 0.04083 0)
# Probe 927 (0.28287 0.581 0)
# Probe 928 (0.04444 0.67606 0)
# Probe 929 (0.04692 0.92188 0)
# Probe 930 (0.57721 0.29927 0)
# Probe 931 (0.28488 0.06681 0)
# Probe 932 (0.72556 0.47088 0)
# Probe 933 (0.77206 0.70351 0)
# Probe 934 (0.85623 0.54138 0)
# Probe 935 (0.61836 0.83719 0)
# Probe 936 (0.49318 0.66181 0)
# Probe 937 (0.64438 0.48761 0)
# Probe 938 (0.60893 0.79583 0)
# Probe 939 (0.68997 0.59553 0)
# Probe 940 (0.55069 0.44342 0)
# Probe 941 (0.72789 0.58863 0)
# Probe 942 (0.13209 0.11059 0)
# Probe 943 (0.08651 0.09776 0)
# Probe 944 (0.80495 0.307 0)
# Probe 945 (0.70854 0.27574 0)
# Probe 946 (0.70486 0.26052 0)
# Probe 947 (0.91796 0.14618 0)
# Probe 948 (0.29689 0.33803 0)
# Probe 949 (0.37678 0.6688 0)
# Probe 950 (0.04066 0.8294 0)
# Probe 951 (0.09372 0.77431 0)
# Probe 952 (0.77013 0.39205 0)
# Probe 953 (0.46131 0.71716 0)
# Probe 954 (0.41661 0.60018 0)
# Probe 955 (0.91566 0.68089 0)
# Probe 956 (0.79772 0.17067 0)
# Probe 957 (0.91963 0.19639 0)
# Probe 958 (0.11566 0.29973 0)
# Probe 959 (0.63134 0.20844 0)
# Probe 960 (0.73705 0.31544 0)
# Probe 961 (0.22495 0.85056 0)
# Probe 962 (0.57643 0.67336 0)
# Probe 963 (0.24353 0.67206 0)
# Probe 964 (0.2944 0.10534 0)
# Probe 965 (0.67512 0.68984 0)
# Probe 966 (0.42055 0.95927 0)
# Probe 967 (0.42698 0.36547 0)
# Probe 968 (0.34306 0.75897 0)
# Probe 969 (0.3884 0.90724 0)
# Probe 970 (0.18078 0.59084 0)
# Probe 971 (0.96244 0.07593 0)
# Probe 972 (0.25476 0.70911 0)