# Probe 0 (0 0 0)
# Probe 1 (1 0 0)
# Probe 2 (1 1 0)
# Probe 3 (0 1 0)
# Probe 4 (0.84 0.45 0)
# Probe 5 (0.74 0.35 0)
# Probe 6 (0.64 0.45 0)
# Probe 7 (0.74 0.55 0)
# Probe 8 (0.05 0 0)
# Probe 9 (0.1 0 0)
# Probe 10 (0.15 0 0)
# Probe 11 (0.2 0 0)
# Probe 12 (0.25 0 0)
# Probe 13 (0.3 0 0)
# Probe 14 (0.35 0 0)
# Probe 15 (0.4 0 0)
# Probe 16 (0.45 0 0)
# Probe 17 (0.5 0 0)
# Probe 18 (0.55 0 0)
# Probe 19 (0.6 0 0)
# Probe 20 (0.65 0 0)
# Probe 21 (0.7 0 0)
# Probe 22 (0.75 0 0)
# Probe 23 (0.8 0 0)
# Probe 24 (0.85 0 0)
# Probe 25 (0.9 0 0)
# Probe 26 (0.95 0 0)
# Probe 27 (1 0.05 0)
# Probe 28 (1 0.1 0)
# Probe 29 (1 0.15 0)
# Probe 30 (1 0.2 0)
# Probe 31 (1 0.25 0)
# Probe 32 (1 0.3 0)
# Probe 33 (1 0.35 0)
# Probe 34 (1 0.4 0)
# Probe 35 (1 0.45 0)
# Probe 36 (1 0.5 0)
# Probe 37 (1 0.55 0)
# Probe 38 (1 0.6 0)
# Probe 39 (1 0.65 0)
# Probe 40 (1 0.7 0)
# Probe 41 (1 0.75 0)
# Probe 42 (1 0.8 0)
# Probe 43 (1 0.85 0)
# Probe 44 (1 0.9 0)
# Probe 45 (1 0.95 0)
# Probe 46 (0.95 1 0)
# Probe 47 (0.9 1 0)
# Probe 48 (0.85 1 0)
# Probe 49 (0.8 1 0)
# Probe 50 (0.75 1 0)
# Probe 51 (0.7 1 0)
# Probe 52 (0.65 1 0)
# Probe 53 (0.6 1 0)
# Probe 54 (0.55 1 0)
# Probe 55 (0.5 1 0)
# Probe 56 (0.45 1 0)
# Probe 57 (0.4 1 0)
# Probe 58 (0.35 1 0)
# Probe 59 (0.3 1 0)
# Probe 60 (0.25 1 0)
# Probe 61 (0.2 1 0)
# Probe 62 (0.15 1 0)
# Probe 63 (0.1 1 0)
# Probe 64 (0.05 1 0)
# Probe 65 (0 0.95 0)
# Probe 66 (0 0.9 0)
# Probe 67 (0 0.85 0)
# Probe 68 (0 0.8 0)
# Probe 69 (0 0.75 0)
# Probe 70 (0 0.7 0)
# Probe 71 (0 0.65 0)
# Probe 72 (0 0.6 0)
# Probe 73 (0 0.55 0)
# Probe 74 (0 0.5 0)
# Probe 75 (0 0.45 0)
# Probe 76 (0 0.4 0)
# Probe 77 (0 0.35 0)
# Probe 78 (0 0.3 0)
# Probe 79 (0 0.25 0)
# Probe 80 (0 0.2 0)
# Probe 81 (0 0.15 0)
# Probe 82 (0 0.1 0)
# Probe 83 (0 0.05 0)
# Probe 84 (0.83952 0.4402 0)
# Probe 85 (0.83808 0.43049 0)
# Probe 86 (0.83569 0.42097 0)
# Probe 87 (0.83239 0.41173 0)
# Probe 88 (0.82819 0.40286 0)
# Probe 89 (0.82315 0.39444 0)
# Probe 90 (0.8173 0.38656 0)
# Probe 91 (0.81071 0.37929 0)
# Probe 92 (0.80344 0.3727 0)
# Probe 93 (0.79556 0.36685 0)
# Probe 94 (0.78714 0.36181 0)
# Probe 95 (0.77827 0.35761 0)
# Probe 96 (0.76903 0.35431 0)
# Probe 97 (0.75951 0.35192 0)
# Probe 98 (0.7498 0.35048 0)
# Probe 99 (0.7302 0.35048 0)
# Probe 100 (0.72049 0.35192 0)
# Probe 101 (0.71097 0.35431 0)
# Probe 102 (0.70173 0.35761 0)
# Probe 103 (0.69286 0.36181 0)
# Probe 104 (0.68444 0.36685 0)
# Probe 105 (0.67656 0.3727 0)
# Probe 106 (0.66929 0.37929 0)
# Probe 107 (0.6627 0.38656 0)
# Probe 108 (0.65685 0.39444 0)
# Probe 109 (0.65181 0.40286 0)
# Probe 110 (0.64761 0.41173 0)
# Probe 111 (0.64431 0.42097 0)
# Probe 112 (0.64192 0.43049 0)
# Probe 113 (0.64048 0.4402 0)
# Probe 114 (0.64048 0.4598 0)
# Probe 115 (0.64192 0.46951 0)
# Probe 116 (0.64431 0.47903 0)
# Probe 117 (0.64761 0.48827 0)
# Probe 118 (0.65181 0.49714 0)
# Probe 119 (0.65685 0.50556 0)
# Probe 120 (0.6627 0.51344 0)
# Probe 121 (0.66929 0.52071 0)
# Probe 122 (0.67656 0.5273 0)
# Probe 123 (0.68444 0.53315 0)
# Probe 124 (0.69286 0.53819 0)
# Probe 125 (0.70173 0.54239 0)
# Probe 126 (0.71097 0.54569 0)
# Probe 127 (0.72049 0.54808 0)
# Probe 128 (0.7302 0.54952 0)
# Probe 129 (0.7498 0.54952 0)
# Probe 130 (0.75951 0.54808 0)
# Probe 131 (0.76903 0.54569 0)
# Probe 132 (0.77827 0.54239 0)
# Probe 133 (0.78714 0.53819 0)
# Probe 134 (0.79556 0.53315 0)
# Probe 135 (0.80344 0.5273 0)
# Probe 136 (0.81071 0.52071 0)
# Probe 137 (0.8173 0.51344 0)
# Probe 138 (0.82315 0.50556 0)
# Probe 139 (0.82819 0.49714 0)
# Probe 140 (0.83239 0.48827 0)
# Probe 141 (0.83569 0.47903 0)
# Probe 142 (0.83808 0.46951 0)
# Probe 143 (0.83952 0.4598 0)
# Probe 144 (0.04056 0.62496 0)
# Probe 145 (0.37577 0.95706 0)
# Probe 146 (0.04343 0.37658 0)
# Probe 147 (0.37423 0.03969 0)
# Probe 148 (0.52737 0.95683 0)
# Probe 149 (0.67535 0.9603 0)
# Probe 150 (0.5262 0.0308 0)
# Probe 151 (0.95601 0.72602 0)
# Probe 152 (0.67164 0.04756 0)
# Probe 153 (0.8203 0.52278 0)
# Probe 154 (0.22606 0.95761 0)
# Probe 155 (0.04165 0.22452 0)
# Probe 156 (0.8273 0.38525 0)
# Probe 157 (0.95832 0.22743 0)
# Probe 158 (0.83817 0.49661 0)
# Probe 159 (0.22797 0.04284 0)
# Probe 160 (0.0423 0.77671 0)
# Probe 161 (0.84239 0.41337 0)
# Probe 162 (0.84785 0.46581 0)
# Probe 163 (0.825 0.9567 0)
# Probe 164 (0.81314 0.36959 0)
# Probe 165 (0.84862 0.44458 0)
# Probe 166 (0.9649 0.62933 0)
# Probe 167 (0.82367 0.04833 0)
# Probe 168 (0.95979 0.82308 0)
# Probe 169 (0.03792 0.4741 0)
# Probe 170 (0.95827 0.32111 0)
# Probe 171 (0.0433 0.875 0)
# Probe 172 (0.03988 0.12518 0)
# Probe 173 (0.95888 0.52121 0)
# Probe 174 (0.95077 0.12868 0)
# Probe 175 (0.96204 0.41648 0)
# Probe 176 (0.1215 0.04607 0)
# Probe 177 (0.12929 0.96011 0)
# Probe 178 (0.92605 0.95961 0)
# Probe 179 (0.92637 0.04149 0)
# Probe 180 (0.95757 0.48266 0)
# Probe 181 (0.92479 0.5031 0)
# Probe 182 (0.92263 0.53566 0)
# Probe 183 (0.89298 0.51768 0)
# Probe 184 (0.89333 0.54714 0)
# Probe 185 (0.8965 0.48968 0)
# Probe 186 (0.87187 0.53451 0)
# Probe 187 (0.8697 0.55747 0)
# Probe 188 (0.8893 0.57255 0)
# Probe 189 (0.86561 0.58105 0)
# Probe 190 (0.79572 0.54316 0)
# Probe 191 (0.84644 0.56338 0)
# Probe 192 (0.84316 0.58804 0)
# Probe 193 (0.86068 0.60505 0)
# Probe 194 (0.83372 0.61136 0)
# Probe 195 (0.76681 0.55682 0)
# Probe 196 (0.85457 0.62981 0)
# Probe 197 (0.8285 0.63756 0)
# Probe 198 (0.84912 0.65635 0)
# Probe 199 (0.8225 0.66368 0)
# Probe 200 (0.8028 0.64502 0)
# Probe 201 (0.7962 0.67047 0)
# Probe 202 (0.77839 0.65191 0)
# Probe 203 (0.77071 0.67624 0)
# Probe 204 (0.75284 0.65511 0)
# Probe 205 (0.74567 0.68165 0)
# Probe 206 (0.72841 0.66431 0)
# Probe 207 (0.72134 0.68898 0)
# Probe 208 (0.70406 0.67125 0)
# Probe 209 (0.69688 0.69526 0)
# Probe 210 (0.68072 0.67798 0)
# Probe 211 (0.67235 0.70186 0)
# Probe 212 (0.65571 0.67881 0)
# Probe 213 (0.69397 0.54621 0)
# Probe 214 (0.64726 0.70865 0)
# Probe 215 (0.62835 0.68806 0)
# Probe 216 (0.62065 0.71586 0)
# Probe 217 (0.60159 0.69572 0)
# Probe 218 (0.60972 0.66933 0)
# Probe 219 (0.58304 0.67575 0)
# Probe 220 (0.66722 0.5303 0)
# Probe 221 (0.57408 0.70189 0)
# Probe 222 (0.55516 0.68132 0)
# Probe 223 (0.56365 0.65516 0)
# Probe 224 (0.53672 0.66028 0)
# Probe 225 (0.54478 0.63475 0)
# Probe 226 (0.51861 0.63958 0)
# Probe 227 (0.52658 0.61445 0)
# Probe 228 (0.50073 0.61918 0)
# Probe 229 (0.50937 0.59392 0)
# Probe 230 (0.48317 0.59868 0)
# Probe 231 (0.492 0.57361 0)
# Probe 232 (0.46339 0.57964 0)
# Probe 233 (0.47378 0.55257 0)
# Probe 234 (0.45947 0.60393 0)
# Probe 235 (0.44431 0.55898 0)
# Probe 236 (0.45492 0.53077 0)
# Probe 237 (0.63566 0.47611 0)
# Probe 238 (0.426 0.53622 0)
# Probe 239 (0.43545 0.50828 0)
# Probe 240 (0.64676 0.50562 0)
# Probe 241 (0.40596 0.51332 0)
# Probe 242 (0.41571 0.48407 0)
# Probe 243 (0.39504 0.54264 0)
# Probe 244 (0.38476 0.48957 0)
# Probe 245 (0.39561 0.4589 0)
# Probe 246 (0.42537 0.45373 0)
# Probe 247 (0.63161 0.44487 0)
# Probe 248 (0.40614 0.42863 0)
# Probe 249 (0.43644 0.4228 0)
# Probe 250 (0.41733 0.39847 0)
# Probe 251 (0.45336 0.39358 0)
# Probe 252 (0.52738 0.68886 0)
# Probe 253 (0.38597 0.40518 0)
# Probe 254 (0.42939 0.36874 0)
# Probe 255 (0.46066 0.3621 0)
# Probe 256 (0.63653 0.41296 0)
# Probe 257 (0.43935 0.33857 0)
# Probe 258 (0.47037 0.33275 0)
# Probe 259 (0.71469 0.7142 0)
# Probe 260 (0.78635 0.69462 0)
# Probe 261 (0.48426 0.52629 0)
# Probe 262 (0.45065 0.30898 0)
# Probe 263 (0.41751 0.3129 0)
# Probe 264 (0.48099 0.3033 0)
# Probe 265 (0.46575 0.42001 0)
# Probe 266 (0.72303 0.55869 0)
# Probe 267 (0.50046 0.32639 0)
# Probe 268 (0.51062 0.2988 0)
# Probe 269 (0.65999 0.37719 0)
# Probe 270 (0.53711 0.59026 0)
# Probe 271 (0.46314 0.28077 0)
# Probe 272 (0.52919 0.3204 0)
# Probe 273 (0.53891 0.29434 0)
# Probe 274 (0.64064 0.73582 0)
# Probe 275 (0.64738 0.3944 0)
# Probe 276 (0.74515 0.55859 0)
# Probe 277 (0.55931 0.31606 0)
# Probe 278 (0.57047 0.29129 0)
# Probe 279 (0.54806 0.33935 0)
# Probe 280 (0.54912 0.26843 0)
# Probe 281 (0.57829 0.26402 0)
# Probe 282 (0.68428 0.35704 0)
# Probe 283 (0.68881 0.65449 0)
# Probe 284 (0.55892 0.24093 0)
# Probe 285 (0.5881 0.23701 0)
# Probe 286 (0.60638 0.25955 0)
# Probe 287 (0.61666 0.23376 0)
# Probe 288 (0.63481 0.25945 0)
# Probe 289 (0.7559 0.34279 0)
# Probe 290 (0.72682 0.34338 0)
# Probe 291 (0.64441 0.23251 0)
# Probe 292 (0.77679 0.34772 0)
# Probe 293 (0.66095 0.25243 0)
# Probe 294 (0.67089 0.22872 0)
# Probe 295 (0.6867 0.24735 0)
# Probe 296 (0.697 0.22495 0)
# Probe 297 (0.71278 0.24367 0)
# Probe 298 (0.7233 0.22175 0)
# Probe 299 (0.73925 0.24077 0)
# Probe 300 (0.74977 0.21693 0)
# Probe 301 (0.76627 0.23765 0)
# Probe 302 (0.77723 0.21269 0)
# Probe 303 (0.6023 0.20988 0)
# Probe 304 (0.62152 0.28131 0)
# Probe 305 (0.79406 0.23524 0)
# Probe 306 (0.57226 0.33743 0)
# Probe 307 (0.56405 0.3568 0)
# Probe 308 (0.75914 0.19026 0)
# Probe 309 (0.57204 0.63216 0)
# Probe 310 (0.80588 0.20861 0)
# Probe 311 (0.68139 0.20228 0)
# Probe 312 (0.73158 0.64211 0)
# Probe 313 (0.84298 0.68461 0)
# Probe 314 (0.67632 0.26802 0)
# Probe 315 (0.58498 0.35338 0)
# Probe 316 (0.57864 0.37134 0)
# Probe 317 (0.55863 0.37635 0)
# Probe 318 (0.57238 0.3909 0)
# Probe 319 (0.36272 0.46491 0)
# Probe 320 (0.61265 0.74364 0)
# Probe 321 (0.63489 0.76544 0)
# Probe 322 (0.60294 0.77356 0)
# Probe 323 (0.6264 0.79691 0)
# Probe 324 (0.65826 0.78754 0)
# Probe 325 (0.59387 0.80595 0)
# Probe 326 (0.35212 0.49677 0)
# Probe 327 (0.32907 0.47141 0)
# Probe 328 (0.31786 0.50538 0)
# Probe 329 (0.29379 0.47825 0)
# Probe 330 (0.28229 0.51363 0)
# Probe 331 (0.2573 0.48534 0)
# Probe 332 (0.26958 0.44936 0)
# Probe 333 (0.24545 0.52136 0)
# Probe 334 (0.27149 0.54933 0)
# Probe 335 (0.23437 0.55829 0)
# Probe 336 (0.26106 0.58725 0)
# Probe 337 (0.23194 0.45671 0)
# Probe 338 (0.24456 0.41913 0)
# Probe 339 (0.22244 0.59607 0)
# Probe 340 (0.24984 0.62583 0)
# Probe 341 (0.20964 0.63429 0)
# Probe 342 (0.23742 0.66469 0)
# Probe 343 (0.27796 0.65622 0)
# Probe 344 (0.26562 0.69465 0)
# Probe 345 (0.30533 0.68591 0)
# Probe 346 (0.29361 0.72387 0)
# Probe 347 (0.33262 0.71422 0)
# Probe 348 (0.25353 0.73401 0)
# Probe 349 (0.28257 0.76435 0)
# Probe 350 (0.24068 0.77471 0)
# Probe 351 (0.19575 0.67151 0)
# Probe 352 (0.20818 0.53257 0)
# Probe 353 (0.783 0.25862 0)
# Probe 354 (0.81001 0.25687 0)
# Probe 355 (0.55293 0.39536 0)
# Probe 356 (0.56783 0.40966 0)
# Probe 357 (0.54741 0.4143 0)
# Probe 358 (0.56111 0.42916 0)
# Probe 359 (0.54156 0.43333 0)
# Probe 360 (0.55533 0.44841 0)
# Probe 361 (0.72803 0.26259 0)
# Probe 362 (0.53554 0.45257 0)
# Probe 363 (0.54967 0.46691 0)
# Probe 364 (0.56852 0.46288 0)
# Probe 365 (0.56339 0.48075 0)
# Probe 366 (0.56975 0.78114 0)
# Probe 367 (0.56002 0.81482 0)
# Probe 368 (0.53549 0.78913 0)
# Probe 369 (0.52493 0.82401 0)
# Probe 370 (0.49943 0.79726 0)
# Probe 371 (0.48846 0.83345 0)
# Probe 372 (0.46161 0.80543 0)
# Probe 373 (0.20491 0.42749 0)
# Probe 374 (0.2182 0.38898 0)
# Probe 375 (0.25791 0.3812 0)
# Probe 376 (0.23157 0.35068 0)
# Probe 377 (0.27123 0.3435 0)
# Probe 378 (0.24511 0.31216 0)
# Probe 379 (0.20469 0.31932 0)
# Probe 380 (0.2185 0.27992 0)
# Probe 381 (0.26032 0.27252 0)
# Probe 382 (0.23318 0.24003 0)
# Probe 383 (0.27603 0.23234 0)
# Probe 384 (0.49139 0.64697 0)
# Probe 385 (0.58512 0.84044 0)
# Probe 386 (0.78576 0.62994 0)
# Probe 387 (0.34389 0.67716 0)
# Probe 388 (0.37 0.70459 0)
# Probe 389 (0.27128 0.80604 0)
# Probe 390 (0.36012 0.74197 0)
# Probe 391 (0.57955 0.42618 0)
# Probe 392 (0.79644 0.28342 0)
# Probe 393 (0.82511 0.27926 0)
# Probe 394 (0.83724 0.25198 0)
# Probe 395 (0.22841 0.8171 0)
# Probe 396 (0.58105 0.4764 0)
# Probe 397 (0.57644 0.49394 0)
# Probe 398 (0.55886 0.49834 0)
# Probe 399 (0.57217 0.51086 0)
# Probe 400 (0.58915 0.50652 0)
# Probe 401 (0.58524 0.52284 0)
# Probe 402 (0.5539 0.51737 0)
# Probe 403 (0.5978 0.36713 0)
# Probe 404 (0.60405 0.35049 0)
# Probe 405 (0.65047 0.82117 0)
# Probe 406 (0.68534 0.81049 0)
# Probe 407 (0.60135 0.51843 0)
# Probe 408 (0.59746 0.53466 0)
# Probe 409 (0.61222 0.53035 0)
# Probe 410 (0.60882 0.54593 0)
# Probe 411 (0.59309 0.55131 0)
# Probe 412 (0.60599 0.56308 0)
# Probe 413 (0.62307 0.55485 0)
# Probe 414 (0.61934 0.57417 0)
# Probe 415 (0.63598 0.56874 0)
# Probe 416 (0.63238 0.58611 0)
# Probe 417 (0.64917 0.58073 0)
# Probe 418 (0.64561 0.59778 0)
# Probe 419 (0.66224 0.59196 0)
# Probe 420 (0.81481 0.30549 0)
# Probe 421 (0.79572 0.35704 0)
# Probe 422 (0.83992 0.30011 0)
# Probe 423 (0.24801 0.1991 0)
# Probe 424 (0.29098 0.19215 0)
# Probe 425 (0.20431 0.20649 0)
# Probe 426 (0.31846 0.22496 0)
# Probe 427 (0.33315 0.18568 0)
# Probe 428 (0.1807 0.60241 0)
# Probe 429 (0.19732 0.78461 0)
# Probe 430 (0.47515 0.7698 0)
# Probe 431 (0.45046 0.84318 0)
# Probe 432 (0.30545 0.57838 0)
# Probe 433 (0.17643 0.28752 0)
# Probe 434 (0.30662 0.15332 0)
# Probe 435 (0.17772 0.39657 0)
# Probe 436 (0.53848 0.38211 0)
# Probe 437 (0.1845 0.82817 0)
# Probe 438 (0.35947 0.2182 0)
# Probe 439 (0.37499 0.18033 0)
# Probe 440 (0.61404 0.36507 0)
# Probe 441 (0.62266 0.35051 0)
# Probe 442 (0.60931 0.38003 0)
# Probe 443 (0.52952 0.47228 0)
# Probe 444 (0.16427 0.43652 0)
# Probe 445 (0.62804 0.60423 0)
# Probe 446 (0.64254 0.61712 0)
# Probe 447 (0.58883 0.56907 0)
# Probe 448 (0.38056 0.66889 0)
# Probe 449 (0.40571 0.69527 0)
# Probe 450 (0.60441 0.50342 0)
# Probe 451 (0.52911 0.24607 0)
# Probe 452 (0.53931 0.21684 0)
# Probe 453 (0.50788 0.22111 0)
# Probe 454 (0.51906 0.19008 0)
# Probe 455 (0.48485 0.19564 0)
# Probe 456 (0.49611 0.16207 0)
# Probe 457 (0.53551 0.15633 0)
# Probe 458 (0.83219 0.32274 0)
# Probe 459 (0.85427 0.31964 0)
# Probe 460 (0.86716 0.29612 0)
# Probe 461 (0.67611 0.84642 0)
# Probe 462 (0.71148 0.83585 0)
# Probe 463 (0.72112 0.79867 0)
# Probe 464 (0.74762 0.82414 0)
# Probe 465 (0.7392 0.86229 0)
# Probe 466 (0.77655 0.8501 0)
# Probe 467 (0.78447 0.81134 0)
# Probe 468 (0.81382 0.83708 0)
# Probe 469 (0.82143 0.79833 0)
# Probe 470 (0.34465 0.26412 0)
# Probe 471 (0.79122 0.30813 0)
# Probe 472 (0.66489 0.57536 0)
# Probe 473 (0.67781 0.58596 0)
# Probe 474 (0.67554 0.60275 0)
# Probe 475 (0.69111 0.59647 0)
# Probe 476 (0.61084 0.33389 0)
# Probe 477 (0.629 0.33209 0)
# Probe 478 (0.87231 0.67594 0)
# Probe 479 (0.86573 0.70734 0)
# Probe 480 (0.63982 0.34574 0)
# Probe 481 (0.64633 0.33017 0)
# Probe 482 (0.82705 0.57306 0)
# Probe 483 (0.84512 0.34057 0)
# Probe 484 (0.86821 0.33837 0)
# Probe 485 (0.85661 0.36046 0)
# Probe 486 (0.88153 0.35737 0)
# Probe 487 (0.87015 0.38093 0)
# Probe 488 (0.57511 0.55615 0)
# Probe 489 (0.5861 0.46038 0)
# Probe 490 (0.59722 0.47204 0)
# Probe 491 (0.64108 0.55291 0)
# Probe 492 (0.5144 0.45658 0)
# Probe 493 (0.21968 0.16418 0)
# Probe 494 (0.17444 0.17201 0)
# Probe 495 (0.42289 0.81414 0)
# Probe 496 (0.41128 0.85313 0)
# Probe 497 (0.43862 0.88186 0)
# Probe 498 (0.38296 0.82333 0)
# Probe 499 (0.2596 0.84916 0)
# Probe 500 (0.89623 0.37633 0)
# Probe 501 (0.88634 0.39906 0)
# Probe 502 (0.37083 0.86348 0)
# Probe 503 (0.69233 0.57978 0)
# Probe 504 (0.70586 0.58973 0)
# Probe 505 (0.2969 0.37355 0)
# Probe 506 (0.60174 0.4577 0)
# Probe 507 (0.70489 0.60558 0)
# Probe 508 (0.72014 0.59896 0)
# Probe 509 (0.52807 0.4172 0)
# Probe 510 (0.35537 0.64207 0)
# Probe 511 (0.85142 0.82425 0)
# Probe 512 (0.39943 0.21266 0)
# Probe 513 (0.45717 0.16847 0)
# Probe 514 (0.47184 0.1318 0)
# Probe 515 (0.15509 0.79554 0)
# Probe 516 (0.30985 0.33689 0)
# Probe 517 (0.87654 0.62253 0)
# Probe 518 (0.79128 0.77416 0)
# Probe 519 (0.51447 0.86275 0)
# Probe 520 (0.65538 0.34409 0)
# Probe 521 (0.66381 0.33117 0)
# Probe 522 (0.70349 0.34796 0)
# Probe 523 (0.65337 0.31491 0)
# Probe 524 (0.6705 0.31411 0)
# Probe 525 (0.67964 0.32767 0)
# Probe 526 (0.68694 0.31301 0)
# Probe 527 (0.50754 0.47812 0)
# Probe 528 (0.49141 0.46092 0)
# Probe 529 (0.39062 0.63417 0)
# Probe 530 (0.36656 0.60799 0)
# Probe 531 (0.14191 0.84024 0)
# Probe 532 (0.85342 0.78214 0)
# Probe 533 (0.8449 0.86565 0)
# Probe 534 (0.13319 0.4047 0)
# Probe 535 (0.62345 0.62373 0)
# Probe 536 (0.43211 0.13738 0)
# Probe 537 (0.44932 0.09944 0)
# Probe 538 (0.62291 0.37843 0)
# Probe 539 (0.61917 0.39182 0)
# Probe 540 (0.60486 0.39452 0)
# Probe 541 (0.61469 0.40535 0)
# Probe 542 (0.8924 0.33516 0)
# Probe 543 (0.17241 0.87342 0)
# Probe 544 (0.82857 0.55412 0)
# Probe 545 (0.63919 0.63779 0)
# Probe 546 (0.34198 0.52969 0)
# Probe 547 (0.19054 0.12837 0)
# Probe 548 (0.14219 0.13698 0)
# Probe 549 (0.2364 0.12317 0)
# Probe 550 (0.76848 0.88967 0)
# Probe 551 (0.71953 0.58305 0)
# Probe 552 (0.73499 0.58989 0)
# Probe 553 (0.34144 0.43798 0)
# Probe 554 (0.5471 0.75575 0)
# Probe 555 (0.12627 0.18228 0)
# Probe 556 (0.61147 0.46734 0)
# Probe 557 (0.14937 0.36463 0)
# Probe 558 (0.60813 0.60952 0)
# Probe 559 (0.16685 0.75212 0)
# Probe 560 (0.11961 0.44578 0)
# Probe 561 (0.40082 0.59965 0)
# Probe 562 (0.15063 0.47653 0)
# Probe 563 (0.83474 0.7119 0)
# Probe 564 (0.52394 0.49429 0)
# Probe 565 (0.82267 0.34341 0)
# Probe 566 (0.6955 0.32744 0)
# Probe 567 (0.70423 0.31464 0)
# Probe 568 (0.81104 0.55987 0)
# Probe 569 (0.80936 0.57826 0)
# Probe 570 (0.79627 0.56651 0)
# Probe 571 (0.79274 0.5829 0)
# Probe 572 (0.80378 0.59575 0)
# Probe 573 (0.64054 0.8565 0)
# Probe 574 (0.31217 0.79754 0)
# Probe 575 (0.57053 0.57496 0)
# Probe 576 (0.55618 0.56087 0)
# Probe 577 (0.33576 0.36463 0)
# Probe 578 (0.34581 0.33182 0)
# Probe 579 (0.48637 0.4819 0)
# Probe 580 (0.73063 0.90517 0)
# Probe 581 (0.7341 0.608 0)
# Probe 582 (0.74876 0.60144 0)
# Probe 583 (0.75052 0.58456 0)
# Probe 584 (0.76326 0.59333 0)
# Probe 585 (0.66702 0.88582 0)
# Probe 586 (0.63166 0.89577 0)
# Probe 587 (0.8832 0.85215 0)
# Probe 588 (0.6492 0.3574 0)
# Probe 589 (0.11901 0.76626 0)
# Probe 590 (0.13493 0.7188 0)
# Probe 591 (0.50016 0.43983 0)
# Probe 592 (0.69454 0.29827 0)
# Probe 593 (0.71174 0.29774 0)
# Probe 594 (0.72136 0.31252 0)
# Probe 595 (0.72882 0.29747 0)
# Probe 596 (0.73772 0.31207 0)
# Probe 597 (0.74599 0.29707 0)
# Probe 598 (0.75405 0.31201 0)
# Probe 599 (0.65784 0.62883 0)
# Probe 600 (0.95006 0.55809 0)
# Probe 601 (0.76259 0.29741 0)
# Probe 602 (0.41221 0.10622 0)
# Probe 603 (0.78104 0.57132 0)
# Probe 604 (0.81643 0.5431 0)
# Probe 605 (0.61849 0.31662 0)
# Probe 606 (0.66376 0.35695 0)
# Probe 607 (0.89797 0.69849 0)
# Probe 608 (0.90348 0.66691 0)
# Probe 609 (0.89054 0.73203 0)
# Probe 610 (0.10997 0.48744 0)
# Probe 611 (0.13842 0.51837 0)
# Probe 612 (0.09664 0.52938 0)
# Probe 613 (0.12402 0.56151 0)
# Probe 614 (0.60068 0.40867 0)
# Probe 615 (0.61098 0.41856 0)
# Probe 616 (0.65812 0.29623 0)
# Probe 617 (0.87769 0.89547 0)
# Probe 618 (0.92106 0.88051 0)
# Probe 619 (0.75496 0.28314 0)
# Probe 620 (0.70274 0.28493 0)
# Probe 621 (0.59815 0.31867 0)
# Probe 622 (0.91236 0.39641 0)
# Probe 623 (0.90133 0.42009 0)
# Probe 624 (0.87428 0.42121 0)
# Probe 625 (0.88926 0.4422 0)
# Probe 626 (0.0889 0.72587 0)
# Probe 627 (0.10442 0.68408 0)
# Probe 628 (0.9238 0.37162 0)
# Probe 629 (0.80216 0.32306 0)
# Probe 630 (0.78464 0.3246 0)
# Probe 631 (0.12714 0.88403 0)
# Probe 632 (0.78831 0.59624 0)
# Probe 633 (0.61471 0.45396 0)
# Probe 634 (0.60465 0.44528 0)
# Probe 635 (0.85173 0.38001 0)
# Probe 636 (0.91268 0.44512 0)
# Probe 637 (0.83407 0.35918 0)
# Probe 638 (0.8744 0.49986 0)
# Probe 639 (0.87428 0.47834 0)
# Probe 640 (0.86516 0.4021 0)
# Probe 641 (0.47311 0.22903 0)
# Probe 642 (0.62462 0.4636 0)
# Probe 643 (0.60818 0.48109 0)
# Probe 644 (0.58474 0.5876 0)
# Probe 645 (0.56411 0.59376 0)
# Probe 646 (0.74571 0.32448 0)
# Probe 647 (0.75957 0.3241 0)
# Probe 648 (0.73028 0.32431 0)
# Probe 649 (0.76032 0.92811 0)
# Probe 650 (0.83015 0.53909 0)
# Probe 651 (0.79698 0.33748 0)
# Probe 652 (0.74921 0.61955 0)
# Probe 653 (0.8573 0.48931 0)
# Probe 654 (0.85586 0.50771 0)
# Probe 655 (0.59891 0.62843 0)
# Probe 656 (0.08305 0.57036 0)
# Probe 657 (0.11218 0.60523 0)
# Probe 658 (0.71534 0.32703 0)
# Probe 659 (0.10722 0.3721 0)
# Probe 660 (0.12152 0.33202 0)
# Probe 661 (0.46669 0.46575 0)
# Probe 662 (0.33002 0.61278 0)
# Probe 663 (0.34638 0.5797 0)
# Probe 664 (0.37288 0.35429 0)
# Probe 665 (0.68774 0.33968 0)
# Probe 666 (0.40011 0.78541 0)
# Probe 667 (0.63582 0.36115 0)
# Probe 668 (0.6441 0.37152 0)
# Probe 669 (0.67621 0.34082 0)
# Probe 670 (0.49019 0.09246 0)
# Probe 671 (0.78532 0.55861 0)
# Probe 672 (0.6558 0.6508 0)
# Probe 673 (0.32337 0.30112 0)
# Probe 674 (0.59728 0.28259 0)
# Probe 675 (0.62031 0.47605 0)
# Probe 676 (0.61881 0.4881 0)
# Probe 677 (0.95985 0.27318 0)
# Probe 678 (0.92219 0.24975 0)
# Probe 679 (0.91962 0.2091 0)
# Probe 680 (0.92175 0.2907 0)
# Probe 681 (0.88722 0.23089 0)
# Probe 682 (0.88381 0.19206 0)
# Probe 683 (0.84674 0.21637 0)
# Probe 684 (0.84998 0.17573 0)
# Probe 685 (0.8815 0.15331 0)
# Probe 686 (0.84574 0.13614 0)
# Probe 687 (0.87863 0.11356 0)
# Probe 688 (0.81338 0.15963 0)
# Probe 689 (0.80951 0.11985 0)
# Probe 690 (0.78141 0.14379 0)
# Probe 691 (0.77409 0.10371 0)
# Probe 692 (0.74398 0.1324 0)
# Probe 693 (0.73578 0.08756 0)
# Probe 694 (0.70542 0.11243 0)
# Probe 695 (0.70903 0.14965 0)
# Probe 696 (0.67465 0.13446 0)
# Probe 697 (0.77276 0.06486 0)
# Probe 698 (0.67034 0.09504 0)
# Probe 699 (0.63822 0.12059 0)
# Probe 700 (0.63383 0.07916 0)
# Probe 701 (0.60031 0.10621 0)
# Probe 702 (0.64427 0.15698 0)
# Probe 703 (0.59764 0.07081 0)
# Probe 704 (0.56499 0.09126 0)
# Probe 705 (0.95735 0.18102 0)
# Probe 706 (0.42199 0.62678 0)
# Probe 707 (0.45775 0.057 0)
# Probe 708 (0.80999 0.62408 0)
# Probe 709 (0.85414 0.54335 0)
# Probe 710 (0.65257 0.56461 0)
# Probe 711 (0.6671 0.55994 0)
# Probe 712 (0.65715 0.5483 0)
# Probe 713 (0.64615 0.53916 0)
# Probe 714 (0.63272 0.54052 0)
# Probe 715 (0.63807 0.52829 0)
# Probe 716 (0.64923 0.52604 0)
# Probe 717 (0.6716 0.54686 0)
# Probe 718 (0.67824 0.55505 0)
# Probe 719 (0.96485 0.67534 0)
# Probe 720 (0.62976 0.40209 0)
# Probe 721 (0.63138 0.38838 0)
# Probe 722 (0.62422 0.41512 0)
# Probe 723 (0.62139 0.42744 0)
# Probe 724 (0.55984 0.53949 0)
# Probe 725 (0.54138 0.54659 0)
# Probe 726 (0.65661 0.27441 0)
# Probe 727 (0.71053 0.6484 0)
# Probe 728 (0.69477 0.63214 0)
# Probe 729 (0.71535 0.6303 0)
# Probe 730 (0.59507 0.48924 0)
# Probe 731 (0.61662 0.51475 0)
# Probe 732 (0.16059 0.0913 0)
# Probe 733 (0.11295 0.09934 0)
# Probe 734 (0.07587 0.06399 0)
# Probe 735 (0.76369 0.57699 0)
# Probe 736 (0.57621 0.44484 0)
# Probe 737 (0.64293 0.30301 0)
# Probe 738 (0.52054 0.34838 0)
# Probe 739 (0.49034 0.35498 0)
# Probe 740 (0.48253 0.38209 0)
# Probe 741 (0.50597 0.37474 0)
# Probe 742 (0.49736 0.39897 0)
# Probe 743 (0.05771 0.69279 0)
# Probe 744 (0.86876 0.43983 0)
# Probe 745 (0.85753 0.42831 0)
# Probe 746 (0.77176 0.31322 0)
# Probe 747 (0.5903 0.43768 0)
# Probe 748 (0.68048 0.56813 0)
# Probe 749 (0.69597 0.56447 0)
# Probe 750 (0.70622 0.57255 0)
# Probe 751 (0.70627 0.55962 0)
# Probe 752 (0.63269 0.42368 0)
# Probe 753 (0.88775 0.26865 0)
# Probe 754 (0.09215 0.84766 0)
# Probe 755 (0.73739 0.33548 0)
# Probe 756 (0.65283 0.51466 0)
# Probe 757 (0.64198 0.49632 0)
# Probe 758 (0.63592 0.50582 0)
# Probe 759 (0.64203 0.40366 0)
# Probe 760 (0.63815 0.48645 0)
# Probe 761 (0.68412 0.54341 0)
# Probe 762 (0.66722 0.3697 0)
# Probe 763 (0.65338 0.38563 0)
# Probe 764 (0.95869 0.77647 0)
# Probe 765 (0.91924 0.79609 0)
# Probe 766 (0.29036 0.61837 0)
# Probe 767 (0.67532 0.36228 0)
# Probe 768 (0.69304 0.35046 0)
# Probe 769 (0.38452 0.25037 0)
# Probe 770 (0.41568 0.24087 0)
# Probe 771 (0.37259 0.28654 0)
# Probe 772 (0.4408 0.2103 0)
# Probe 773 (0.32627 0.40392 0)
# Probe 774 (0.07921 0.34692 0)
# Probe 775 (0.08946 0.29723 0)
# Probe 776 (0.07708 0.4136 0)
# Probe 777 (0.41456 0.6601 0)
# Probe 778 (0.43964 0.6858 0)
# Probe 779 (0.4309 0.72037 0)
# Probe 780 (0.46411 0.71074 0)
# Probe 781 (0.44886 0.65094 0)
# Probe 782 (0.4739 0.67735 0)
# Probe 783 (0.75634 0.78688 0)
# Probe 784 (0.763 0.75188 0)
# Probe 785 (0.79579 0.74266 0)
# Probe 786 (0.72692 0.75988 0)
# Probe 787 (0.69263 0.77541 0)
# Probe 788 (0.82708 0.76041 0)
# Probe 789 (0.4975 0.70042 0)
# Probe 790 (0.71512 0.34204 0)
# Probe 791 (0.34174 0.83254 0)
# Probe 792 (0.32911 0.87328 0)
# Probe 793 (0.35936 0.91277 0)
# Probe 794 (0.30498 0.91763 0)
# Probe 795 (0.62901 0.49491 0)
# Probe 796 (0.51654 0.56915 0)
# Probe 797 (0.49968 0.54759 0)
# Probe 798 (0.51034 0.52146 0)
# Probe 799 (0.72607 0.04244 0)
# Probe 800 (0.72041 0.56975 0)
# Probe 801 (0.73088 0.57558 0)
# Probe 802 (0.8203 0.37722 0)
# Probe 803 (0.80488 0.36269 0)
# Probe 804 (0.80583 0.34919 0)
# Probe 805 (0.81728 0.35849 0)
# Probe 806 (0.83156 0.37486 0)
# Probe 807 (0.7863 0.35215 0)
# Probe 808 (0.76648 0.34488 0)
# Probe 809 (0.77471 0.3366 0)
# Probe 810 (0.05421 0.53942 0)
# Probe 811 (0.75537 0.55797 0)
# Probe 812 (0.75095 0.56998 0)
# Probe 813 (0.7345 0.55833 0)
# Probe 814 (0.15009 0.67106 0)
# Probe 815 (0.66785 0.75541 0)
# Probe 816 (0.69636 0.74081 0)
# Probe 817 (0.63465 0.66151 0)
# Probe 818 (0.16824 0.55399 0)
# Probe 819 (0.80486 0.5379 0)
# Probe 820 (0.56933 0.13157 0)
# Probe 821 (0.60566 0.1503 0)
# Probe 822 (0.57237 0.17099 0)
# Probe 823 (0.81278 0.5303 0)
# Probe 824 (0.82756 0.51517 0)
# Probe 825 (0.30118 0.26682 0)
# Probe 826 (0.41612 0.17596 0)
# Probe 827 (0.59007 0.39788 0)
# Probe 828 (0.48738 0.73534 0)
# Probe 829 (0.5261 0.72556 0)
# Probe 830 (0.5121 0.76293 0)
# Probe 831 (0.2839 0.41136 0)
# Probe 832 (0.59625 0.42246 0)
# Probe 833 (0.83339 0.50593 0)
# Probe 834 (0.84134 0.51707 0)
# Probe 835 (0.84289 0.48759 0)
# Probe 836 (0.40951 0.27618 0)
# Probe 837 (0.61972 0.44102 0)
# Probe 838 (0.62644 0.95753 0)
# Probe 839 (0.57478 0.95805 0)
# Probe 840 (0.55233 0.91883 0)
# Probe 841 (0.50804 0.90873 0)
# Probe 842 (0.47994 0.95574 0)
# Probe 843 (0.42731 0.95311 0)
# Probe 844 (0.32589 0.04223 0)
# Probe 845 (0.3491 0.0783 0)
# Probe 846 (0.30234 0.08092 0)
# Probe 847 (0.27728 0.04148 0)
# Probe 848 (0.83329 0.39408 0)
# Probe 849 (0.8384 0.40346 0)
# Probe 850 (0.84513 0.47633 0)
# Probe 851 (0.85633 0.47314 0)
# Probe 852 (0.85898 0.4624 0)
# Probe 853 (0.84884 0.45531 0)
# Probe 854 (0.84574 0.4238 0)
# Probe 855 (0.9199 0.47178 0)
# Probe 856 (0.46756 0.49923 0)
# Probe 857 (0.89432 0.46494 0)
# Probe 858 (0.4391 0.77769 0)
# Probe 859 (0.15401 0.918 0)
# Probe 860 (0.20639 0.90757 0)
# Probe 861 (0.58183 0.75065 0)
# Probe 862 (0.70536 0.33588 0)
# Probe 863 (0.84787 0.4343 0)
# Probe 864 (0.175 0.04342 0)
# Probe 865 (0.87797 0.04276 0)
# Probe 866 (0.38183 0.32204 0)
# Probe 867 (0.96194 0.38204 0)
# Probe 868 (0.87477 0.94865 0)
# Probe 869 (0.37918 0.57472 0)
# Probe 870 (0.04181 0.17387 0)
# Probe 871 (0.08857 0.14461 0)
# Probe 872 (0.04181 0.27504 0)
# Probe 873 (0.6205 0.18418 0)
# Probe 874 (0.65176 0.18891 0)
# Probe 875 (0.04402 0.8249 0)
# Probe 876 (0.08388 0.79857 0)
# Probe 877 (0.27685 0.959 0)
# Probe 878 (0.49189 0.2767 0)
# Probe 879 (0.04243 0.92485 0)
# Probe 880 (0.63241 0.45568 0)
# Probe 881 (0.83528 0.90965 0)
# Probe 882 (0.6323 0.43402 0)
# Probe 883 (0.35775 0.78429 0)
# Probe 884 (0.15889 0.21585 0)
# Probe 885 (0.11719 0.22838 0)
# Probe 886 (0.32314 0.75438 0)
# Probe 887 (0.21036 0.74258 0)
# Probe 888 (0.34989 0.14932 0)
# Probe 889 (0.31763 0.64948 0)
# Probe 890 (0.3961 0.73024 0)
# Probe 891 (0.84459 0.39409 0)
# Probe 892 (0.72642 0.95556 0)
# Probe 893 (0.67872 0.16945 0)
# Probe 894 (0.70802 0.1817 0)
# Probe 895 (0.30735 0.54241 0)
# Probe 896 (0.192 0.46603 0)
# Probe 897 (0.28426 0.30588 0)
# Probe 898 (0.76388 0.63422 0)
# Probe 899 (0.26361 0.1586 0)
# Probe 900 (0.6576 0.53414 0)
# Probe 901 (0.54956 0.70489 0)
# Probe 902 (0.73616 0.16933 0)
# Probe 903 (0.39227 0.14417 0)
# Probe 904 (0.19114 0.24741 0)
# Probe 905 (0.21603 0.8597 0)
# Probe 906 (0.73813 0.73328 0)
# Probe 907 (0.76764 0.71969 0)
# Probe 908 (0.41243 0.56725 0)
# Probe 909 (0.41944 0.04004 0)
# Probe 910 (0.83923 0.09611 0)
# Probe 911 (0.19104 0.35773 0)
# Probe 912 (0.68992 0.61301 0)
# Probe 913 (0.22407 0.70334 0)
# Probe 914 (0.76815 0.61404 0)
# Probe 915 (0.77717 0.58708 0)
# Probe 916 (0.30734 0.44205 0)
# Probe 917 (0.53174 0.11418 0)
# Probe 918 (0.21911 0.49418 0)
# Probe 919 (0.58921 0.65141 0)
# Probe 920 (0.14896 0.25705 0)
# Probe 921 (0.28282 0.8811 0)
# Probe 922 (0.64203 0.5165 0)
# Probe 923 (0.63074 0.51662 0)
# Probe 924 (0.62785 0.03913 0)
# Probe 925 (0.5013 0.5004 0)
# Probe 926 (0.53152 0.51538 0)
# Probe 927 (0.54524 0.48541 0)
# Probe 928 (0.65947 0.60934 0)
# Probe 929 (0.67497 0.53659 0)
# Probe 930 (0.47747 0.87414 0)
# Probe 931 (0.6024 0.58028 0)
# Probe 932 (0.37601 0.51933 0)
# Probe 933 (0.59356 0.91745 0)
# Probe 934 (0.57139 0.8796 0)
# Probe 935 (0.40007 0.89233 0)
# Probe 936 (0.95935 0.07405 0)
# Probe 937 (0.20739 0.0857 0)
# Probe 938 (0.4356 0.59459 0)
# Probe 939 (0.3742 0.43433 0)
# Probe 940 (0.0792 0.95272 0)
# Probe 941 (0.80467 0.54758 0)
# Probe 942 (0.62557 0.50623 0)
# Probe 943 (0.59265 0.72243 0)
# Probe 944 (0.50758 0.66891 0)
# Probe 945 (0.66747 0.72714 0)
# Probe 946 (0.72027 0.28171 0)
# Probe 947 (0.52056 0.27244 0)
# Probe 948 (0.29945 0.83994 0)
# Probe 949 (0.95644 0.92225 0)
# Probe 950 (0.61803 0.82909 0)
# Probe 951 (0.77414 0.28034 0)
# Probe 952 (0.91821 0.32396 0)
# Probe 953 (0.33007 0.95963 0)
# Probe 954 (0.47608 0.4426 0)
# Probe 955 (0.70349 0.87661 0)
# Probe 956 (0.74167 0.70588 0)
# Probe 957 (0.47158 0.6287 0)
# Probe 958 (0.82402 0.59297 0)
# Probe 959 (0.58003 0.53861 0)
# Probe 960 (0.57237 0.20722 0)
# Probe 961 (0.853 0.74146 0)
# Probe 962 (0.81492 0.68959 0)
# Probe 963 (0.91731 0.56544 0)
# Probe 964 (0.91143 0.59478 0)
# Probe 965 (0.54926 0.85106 0)
# Probe 966 (0.92004 0.75973 0)
# Probe 967 (0.63622 0.31678 0)
# Probe 968 (0.80945 0.33689 0)
# Probe 969 (0.80587 0.87823 0)
# Probe 970 (0.91717 0.16733 0)
# Probe 971 (0.08226 0.9 0)