# Probe 0 (0 0 0)
# Probe 1 (1 0 0)
# Probe 2 (1 1 0)
# Probe 3 (0 1 0)
# Probe 4 (0.65 0.79 0)
# Probe 5 (0.55 0.69 0)
# Probe 6 (0.45 0.79 0)
# Probe 7 (0.55 0.89 0)
# Probe 8 (0.05 0 0)
# Probe 9 (0.1 0 0)
# Probe 10 (0.15 0 0)
# Probe 11 (0.2 0 0)
# Probe 12 (0.25 0 0)
# Probe 13 (0.3 0 0)
# Probe 14 (0.35 0 0)
# Probe 15 (0.4 0 0)
# Probe 16 (0.45 0 0)
# Probe 17 (0.5 0 0)
# Probe 18 (0.55 0 0)
# Probe 19 (0.6 0 0)
# Probe 20 (0.65 0 0)
# Probe 21 (0.7 0 0)
# Probe 22 (0.75 0 0)
# Probe 23 (0.8 0 0)
# Probe 24 (0.85 0 0)
# Probe 25 (0.9 0 0)
# Probe 26 (0.95 0 0)
# Probe 27 (1 0.05 0)
# Probe 28 (1 0.1 0)
# Probe 29 (1 0.15 0)
# Probe 30 (1 0.2 0)
# Probe 31 (1 0.25 0)
# Probe 32 (1 0.3 0)
# Probe 33 (1 0.35 0)
# Probe 34 (1 0.4 0)
# Probe 35 (1 0.45 0)
# Probe 36 (1 0.5 0)
# Probe 37 (1 0.55 0)
# Probe 38 (1 0.6 0)
# Probe 39 (1 0.65 0)
# Probe 40 (1 0.7 0)
# Probe 41 (1 0.75 0)
# Probe 42 (1 0.8 0)
# Probe 43 (1 0.85 0)
# Probe 44 (1 0.9 0)
# Probe 45 (1 0.95 0)
# Probe 46 (0.95 1 0)
# Probe 47 (0.9 1 0)
# Probe 48 (0.85 1 0)
# Probe 49 (0.8 1 0)
# Probe 50 (0.75 1 0)
# Probe 51 (0.7 1 0)
# Probe 52 (0.65 1 0)
# Probe 53 (0.6 1 0)
# Probe 54 (0.55 1 0)
# Probe 55 (0.5 1 0)
# Probe 56 (0.45 1 0)
# Probe 57 (0.4 1 0)
# Probe 58 (0.35 1 0)
# Probe 59 (0.3 1 0)
# Probe 60 (0.25 1 0)
# Probe 61 (0.2 1 0)
# Probe 62 (0.15 1 0)
# Probe 63 (0.1 1 0)
# Probe 64 (0.05 1 0)
# Probe 65 (0 0.95 0)
# Probe 66 (0 0.9 0)
# Probe 67 (0 0.85 0)
# Probe 68 (0 0.8 0)
# Probe 69 (0 0.75 0)
# Probe 70 (0 0.7 0)
# Probe 71 (0 0.65 0)
# Probe 72 (0 0.6 0)
# Probe 73 (0 0.55 0)
# Probe 74 (0 0.5 0)
# Probe 75 (0 0.45 0)
# Probe 76 (0 0.4 0)
# Probe 77 (0 0.35 0)
# Probe 78 (0 0.3 0)
# Probe 79 (0 0.25 0)
# Probe 80 (0 0.2 0)
# Probe 81 (0 0.15 0)
# Probe 82 (0 0.1 0)
# Probe 83 (0 0.05 0)
# Probe 84 (0.64952 0.7802 0)
# Probe 85 (0.64808 0.77049 0)
# Probe 86 (0.64569 0.76097 0)
# Probe 87 (0.64239 0.75173 0)
# Probe 88 (0.63819 0.74286 0)
# Probe 89 (0.63315 0.73444 0)
# Probe 90 (0.6273 0.72656 0)
# Probe 91 (0.62071 0.71929 0)
# Probe 92 (0.61344 0.7127 0)
# Probe 93 (0.60556 0.70685 0)
# Probe 94 (0.59714 0.70181 0)
# Probe 95 (0.58827 0.69761 0)
# Probe 96 (0.57903 0.69431 0)
# Probe 97 (0.56951 0.69192 0)
# Probe 98 (0.5598 0.69048 0)
# Probe 99 (0.5402 0.69048 0)
# Probe 100 (0.53049 0.69192 0)
# Probe 101 (0.52097 0.69431 0)
# Probe 102 (0.51173 0.69761 0)
# Probe 103 (0.50286 0.70181 0)
# Probe 104 (0.49444 0.70685 0)
# Probe 105 (0.48656 0.7127 0)
# Probe 106 (0.47929 0.71929 0)
# Probe 107 (0.4727 0.72656 0)
# Probe 108 (0.46685 0.73444 0)
# Probe 109 (0.46181 0.74286 0)
# Probe 110 (0.45761 0.75173 0)
# Probe 111 (0.45431 0.76097 0)
# Probe 112 (0.45192 0.77049 0)
# Probe 113 (0.45048 0.7802 0)
# Probe 114 (0.45048 0.7998 0)
# Probe 115 (0.45192 0.80951 0)
# Probe 116 (0.45431 0.81903 0)
# Probe 117 (0.45761 0.82827 0)
# Probe 118 (0.46181 0.83714 0)
# Probe 119 (0.46685 0.84556 0)
# Probe 120 (0.4727 0.85344 0)
# Probe 121 (0.47929 0.86071 0)
# Probe 122 (0.48656 0.8673 0)
# Probe 123 (0.49444 0.87315 0)
# Probe 124 (0.50286 0.87819 0)
# Probe 125 (0.51173 0.88239 0)
# Probe 126 (0.52097 0.88569 0)
# Probe 127 (0.53049 0.88808 0)
# Probe 128 (0.5402 0.88952 0)
# Probe 129 (0.5598 0.88952 0)
# Probe 130 (0.56951 0.88808 0)
# Probe 131 (0.57903 0.88569 0)
# Probe 132 (0.58827 0.88239 0)
# Probe 133 (0.59714 0.87819 0)
# Probe 134 (0.60556 0.87315 0)
# Probe 135 (0.61344 0.8673 0)
# Probe 136 (0.62071 0.86071 0)
# Probe 137 (0.6273 0.85344 0)
# Probe 138 (0.63315 0.84556 0)
# Probe 139 (0.63819 0.83714 0)
# Probe 140 (0.64239 0.82827 0)
# Probe 141 (0.64569 0.81903 0)
# Probe 142 (0.64808 0.80951 0)
# Probe 143 (0.64952 0.7998 0)
# Probe 144 (0.37468 0.04353 0)
# Probe 145 (0.62381 0.03983 0)
# Probe 146 (0.9567 0.375 0)
# Probe 147 (0.04073 0.42653 0)
# Probe 148 (0.03998 0.57166 0)
# Probe 149 (0.96177 0.52634 0)
# Probe 150 (0.04479 0.72584 0)
# Probe 151 (0.0359 0.26562 0)
# Probe 152 (0.95387 0.6751 0)
# Probe 153 (0.27089 0.96313 0)
# Probe 154 (0.45659 0.84712 0)
# Probe 155 (0.775 0.0433 0)
# Probe 156 (0.2232 0.04411 0)
# Probe 157 (0.77919 0.95714 0)
# Probe 158 (0.64296 0.84572 0)
# Probe 159 (0.9567 0.225 0)
# Probe 160 (0.6303 0.86278 0)
# Probe 161 (0.4697 0.86278 0)
# Probe 162 (0.61589 0.87733 0)
# Probe 163 (0.48507 0.87733 0)
# Probe 164 (0.59741 0.88903 0)
# Probe 165 (0.50314 0.89116 0)
# Probe 166 (0.5758 0.8962 0)
# Probe 167 (0.55532 0.89825 0)
# Probe 168 (0.5217 0.89713 0)
# Probe 169 (0.96012 0.82568 0)
# Probe 170 (0.17476 0.96154 0)
# Probe 171 (0.0433 0.825 0)
# Probe 172 (0.5241 0.0477 0)
# Probe 173 (0.375 0.9567 0)
# Probe 174 (0.04186 0.175 0)
# Probe 175 (0.87778 0.04996 0)
# Probe 176 (0.87427 0.95978 0)
# Probe 177 (0.12809 0.039 0)
# Probe 178 (0.66982 0.95901 0)
# Probe 179 (0.9573 0.12106 0)
# Probe 180 (0.46814 0.96295 0)
# Probe 181 (0.04536 0.92117 0)
# Probe 182 (0.57528 0.95491 0)
# Probe 183 (0.95772 0.92471 0)
# Probe 184 (0.04232 0.07524 0)
# Probe 185 (0.52323 0.96255 0)
# Probe 186 (0.49588 0.92389 0)
# Probe 187 (0.6295 0.95929 0)
# Probe 188 (0.64766 0.92623 0)
# Probe 189 (0.68229 0.92428 0)
# Probe 190 (0.66541 0.89756 0)
# Probe 191 (0.69273 0.89741 0)
# Probe 192 (0.68146 0.8771 0)
# Probe 193 (0.70226 0.87501 0)
# Probe 194 (0.65554 0.81593 0)
# Probe 195 (0.69101 0.85394 0)
# Probe 196 (0.7121 0.85258 0)
# Probe 197 (0.72565 0.87231 0)
# Probe 198 (0.73401 0.84971 0)
# Probe 199 (0.7209 0.83188 0)
# Probe 200 (0.74212 0.8274 0)
# Probe 201 (0.65825 0.78468 0)
# Probe 202 (0.7241 0.80968 0)
# Probe 203 (0.74919 0.80496 0)
# Probe 204 (0.73361 0.78701 0)
# Probe 205 (0.75718 0.78241 0)
# Probe 206 (0.74157 0.76395 0)
# Probe 207 (0.76543 0.75939 0)
# Probe 208 (0.74928 0.74055 0)
# Probe 209 (0.64797 0.74366 0)
# Probe 210 (0.77382 0.73584 0)
# Probe 211 (0.75706 0.71656 0)
# Probe 212 (0.65684 0.76364 0)
# Probe 213 (0.78261 0.7113 0)
# Probe 214 (0.76497 0.69231 0)
# Probe 215 (0.74049 0.69664 0)
# Probe 216 (0.74764 0.67329 0)
# Probe 217 (0.6293 0.71867 0)
# Probe 218 (0.77354 0.66932 0)
# Probe 219 (0.75403 0.65079 0)
# Probe 220 (0.73055 0.65553 0)
# Probe 221 (0.73714 0.63231 0)
# Probe 222 (0.71413 0.63841 0)
# Probe 223 (0.72027 0.61534 0)
# Probe 224 (0.69755 0.6214 0)
# Probe 225 (0.7036 0.59847 0)
# Probe 226 (0.68142 0.60461 0)
# Probe 227 (0.68733 0.58263 0)
# Probe 228 (0.66495 0.588 0)
# Probe 229 (0.67285 0.56308 0)
# Probe 230 (0.64734 0.57092 0)
# Probe 231 (0.65356 0.54804 0)
# Probe 232 (0.63087 0.5538 0)
# Probe 233 (0.63674 0.53062 0)
# Probe 234 (0.61314 0.53657 0)
# Probe 235 (0.61935 0.51248 0)
# Probe 236 (0.59592 0.51935 0)
# Probe 237 (0.60127 0.49405 0)
# Probe 238 (0.57393 0.50581 0)
# Probe 239 (0.58197 0.47499 0)
# Probe 240 (0.55408 0.48268 0)
# Probe 241 (0.54491 0.68216 0)
# Probe 242 (0.56205 0.45381 0)
# Probe 243 (0.53382 0.46151 0)
# Probe 244 (0.59064 0.44639 0)
# Probe 245 (0.52611 0.48993 0)
# Probe 246 (0.50547 0.46935 0)
# Probe 247 (0.49792 0.49785 0)
# Probe 248 (0.47728 0.4775 0)
# Probe 249 (0.46953 0.50598 0)
# Probe 250 (0.44889 0.48659 0)
# Probe 251 (0.44148 0.51415 0)
# Probe 252 (0.45146 0.46154 0)
# Probe 253 (0.50455 0.69105 0)
# Probe 254 (0.42029 0.49512 0)
# Probe 255 (0.4125 0.52266 0)
# Probe 256 (0.66055 0.52443 0)
# Probe 257 (0.5699 0.42425 0)
# Probe 258 (0.60089 0.41666 0)
# Probe 259 (0.39082 0.50167 0)
# Probe 260 (0.38372 0.53119 0)
# Probe 261 (0.57618 0.68551 0)
# Probe 262 (0.57806 0.39367 0)
# Probe 263 (0.61076 0.38548 0)
# Probe 264 (0.71039 0.5746 0)
# Probe 265 (0.36111 0.51078 0)
# Probe 266 (0.35414 0.54045 0)
# Probe 267 (0.36859 0.48381 0)
# Probe 268 (0.58687 0.36106 0)
# Probe 269 (0.62007 0.35278 0)
# Probe 270 (0.37634 0.56184 0)
# Probe 271 (0.47761 0.71011 0)
# Probe 272 (0.34762 0.57042 0)
# Probe 273 (0.60572 0.69704 0)
# Probe 274 (0.64423 0.37809 0)
# Probe 275 (0.65406 0.34399 0)
# Probe 276 (0.32998 0.51818 0)
# Probe 277 (0.59098 0.54231 0)
# Probe 278 (0.3689 0.59011 0)
# Probe 279 (0.34071 0.59897 0)
# Probe 280 (0.36122 0.61832 0)
# Probe 281 (0.45672 0.73438 0)
# Probe 282 (0.33402 0.62695 0)
# Probe 283 (0.44175 0.78468 0)
# Probe 284 (0.31284 0.60778 0)
# Probe 285 (0.30686 0.63618 0)
# Probe 286 (0.33235 0.6567 0)
# Probe 287 (0.30202 0.66448 0)
# Probe 288 (0.32318 0.68383 0)
# Probe 289 (0.29665 0.69138 0)
# Probe 290 (0.3172 0.71078 0)
# Probe 291 (0.28596 0.71913 0)
# Probe 292 (0.31114 0.7392 0)
# Probe 293 (0.44506 0.81627 0)
# Probe 294 (0.46268 0.53338 0)
# Probe 295 (0.59584 0.32729 0)
# Probe 296 (0.56169 0.33625 0)
# Probe 297 (0.67882 0.3708 0)
# Probe 298 (0.68933 0.33503 0)
# Probe 299 (0.3879 0.60979 0)
# Probe 300 (0.27639 0.67324 0)
# Probe 301 (0.76046 0.62663 0)
# Probe 302 (0.28314 0.74906 0)
# Probe 303 (0.57073 0.30147 0)
# Probe 304 (0.5348 0.3109 0)
# Probe 305 (0.52363 0.68429 0)
# Probe 306 (0.4471 0.75362 0)
# Probe 307 (0.64269 0.59488 0)
# Probe 308 (0.71527 0.36328 0)
# Probe 309 (0.72644 0.32643 0)
# Probe 310 (0.69956 0.2979 0)
# Probe 311 (0.30587 0.76861 0)
# Probe 312 (0.34259 0.70276 0)
# Probe 313 (0.73847 0.28895 0)
# Probe 314 (0.54471 0.27464 0)
# Probe 315 (0.50764 0.2845 0)
# Probe 316 (0.76577 0.82325 0)
# Probe 317 (0.27622 0.77955 0)
# Probe 318 (0.25218 0.7589 0)
# Probe 319 (0.67451 0.62961 0)
# Probe 320 (0.71018 0.25911 0)
# Probe 321 (0.75103 0.2498 0)
# Probe 322 (0.70873 0.66072 0)
# Probe 323 (0.79989 0.73172 0)
# Probe 324 (0.51799 0.2471 0)
# Probe 325 (0.48038 0.25718 0)
# Probe 326 (0.55582 0.23723 0)
# Probe 327 (0.4703 0.29481 0)
# Probe 328 (0.44273 0.2675 0)
# Probe 329 (0.43282 0.30524 0)
# Probe 330 (0.40515 0.278 0)
# Probe 331 (0.39519 0.31582 0)
# Probe 332 (0.36725 0.28823 0)
# Probe 333 (0.35728 0.3269 0)
# Probe 334 (0.32888 0.29867 0)
# Probe 335 (0.31896 0.33756 0)
# Probe 336 (0.28982 0.30913 0)
# Probe 337 (0.27937 0.34946 0)
# Probe 338 (0.33915 0.25954 0)
# Probe 339 (0.75261 0.3548 0)
# Probe 340 (0.74106 0.39164 0)
# Probe 341 (0.33776 0.75802 0)
# Probe 342 (0.32927 0.78676 0)
# Probe 343 (0.24435 0.79083 0)
# Probe 344 (0.24996 0.31993 0)
# Probe 345 (0.23968 0.36029 0)
# Probe 346 (0.45242 0.2293 0)
# Probe 347 (0.21875 0.76683 0)
# Probe 348 (0.72138 0.2187 0)
# Probe 349 (0.27127 0.81638 0)
# Probe 350 (0.7783 0.38344 0)
# Probe 351 (0.76675 0.41935 0)
# Probe 352 (0.76324 0.20867 0)
# Probe 353 (0.79198 0.34736 0)
# Probe 354 (0.28401 0.61654 0)
# Probe 355 (0.8105 0.70672 0)
# Probe 356 (0.82979 0.72907 0)
# Probe 357 (0.72474 0.74429 0)
# Probe 358 (0.21019 0.80257 0)
# Probe 359 (0.80383 0.41171 0)
# Probe 360 (0.79225 0.44727 0)
# Probe 361 (0.75007 0.86934 0)
# Probe 362 (0.26064 0.27929 0)
# Probe 363 (0.35593 0.77942 0)
# Probe 364 (0.35033 0.80426 0)
# Probe 365 (0.62723 0.48656 0)
# Probe 366 (0.54842 0.40228 0)
# Probe 367 (0.21945 0.28977 0)
# Probe 368 (0.23059 0.24752 0)
# Probe 369 (0.52819 0.2084 0)
# Probe 370 (0.5676 0.19838 0)
# Probe 371 (0.82916 0.43968 0)
# Probe 372 (0.81727 0.47524 0)
# Probe 373 (0.26884 0.39 0)
# Probe 374 (0.22958 0.40107 0)
# Probe 375 (0.19979 0.37188 0)
# Probe 376 (0.18987 0.41257 0)
# Probe 377 (0.21994 0.44122 0)
# Probe 378 (0.18098 0.45304 0)
# Probe 379 (0.21187 0.48021 0)
# Probe 380 (0.79333 0.24067 0)
# Probe 381 (0.73072 0.4272 0)
# Probe 382 (0.38067 0.63551 0)
# Probe 383 (0.40479 0.62896 0)
# Probe 384 (0.39902 0.65095 0)
# Probe 385 (0.41975 0.645 0)
# Probe 386 (0.41503 0.66486 0)
# Probe 387 (0.43373 0.65985 0)
# Probe 388 (0.43914 0.64155 0)
# Probe 389 (0.45154 0.65488 0)
# Probe 390 (0.45677 0.63759 0)
# Probe 391 (0.43149 0.67937 0)
# Probe 392 (0.46891 0.65037 0)
# Probe 393 (0.47417 0.63345 0)
# Probe 394 (0.4621 0.62026 0)
# Probe 395 (0.47997 0.61611 0)
# Probe 396 (0.49218 0.63006 0)
# Probe 397 (0.49812 0.61249 0)
# Probe 398 (0.50968 0.62577 0)
# Probe 399 (0.51613 0.6088 0)
# Probe 400 (0.52656 0.62153 0)
# Probe 401 (0.53415 0.60583 0)
# Probe 402 (0.54491 0.62139 0)
# Probe 403 (0.52661 0.5926 0)
# Probe 404 (0.41173 0.68396 0)
# Probe 405 (0.78204 0.77832 0)
# Probe 406 (0.80617 0.19826 0)
# Probe 407 (0.78071 0.48161 0)
# Probe 408 (0.80511 0.50923 0)
# Probe 409 (0.17216 0.49265 0)
# Probe 410 (0.20668 0.52313 0)
# Probe 411 (0.18245 0.77727 0)
# Probe 412 (0.18918 0.73998 0)
# Probe 413 (0.17351 0.81526 0)
# Probe 414 (0.37354 0.79388 0)
# Probe 415 (0.37359 0.81833 0)
# Probe 416 (0.37891 0.77317 0)
# Probe 417 (0.34589 0.8299 0)
# Probe 418 (0.38776 0.3595 0)
# Probe 419 (0.36739 0.84595 0)
# Probe 420 (0.42538 0.69643 0)
# Probe 421 (0.409 0.70141 0)
# Probe 422 (0.84102 0.69972 0)
# Probe 423 (0.34097 0.85756 0)
# Probe 424 (0.46131 0.32971 0)
# Probe 425 (0.86247 0.72325 0)
# Probe 426 (0.85032 0.7559 0)
# Probe 427 (0.55233 0.60348 0)
# Probe 428 (0.56394 0.61644 0)
# Probe 429 (0.55854 0.63286 0)
# Probe 430 (0.57607 0.6297 0)
# Probe 431 (0.58192 0.6128 0)
# Probe 432 (0.59292 0.62677 0)
# Probe 433 (0.73305 0.17733 0)
# Probe 434 (0.42151 0.7128 0)
# Probe 435 (0.18741 0.25905 0)
# Probe 436 (0.1986 0.21558 0)
# Probe 437 (0.24289 0.20391 0)
# Probe 438 (0.46387 0.66659 0)
# Probe 439 (0.50311 0.64339 0)
# Probe 440 (0.16392 0.53245 0)
# Probe 441 (0.18925 0.56024 0)
# Probe 442 (0.40551 0.71838 0)
# Probe 443 (0.41211 0.60435 0)
# Probe 444 (0.15403 0.57104 0)
# Probe 445 (0.17981 0.59851 0)
# Probe 446 (0.14479 0.60938 0)
# Probe 447 (0.58728 0.64271 0)
# Probe 448 (0.60343 0.64024 0)
# Probe 449 (0.71154 0.78956 0)
# Probe 450 (0.15853 0.38358 0)
# Probe 451 (0.48615 0.59724 0)
# Probe 452 (0.59759 0.65518 0)
# Probe 453 (0.61345 0.65324 0)
# Probe 454 (0.20323 0.84129 0)
# Probe 455 (0.84223 0.40503 0)
# Probe 456 (0.86857 0.43295 0)
# Probe 457 (0.39169 0.8373 0)
# Probe 458 (0.38772 0.86173 0)
# Probe 459 (0.51753 0.51767 0)
# Probe 460 (0.69108 0.18779 0)
# Probe 461 (0.13253 0.50327 0)
# Probe 462 (0.8418 0.50458 0)
# Probe 463 (0.82863 0.53734 0)
# Probe 464 (0.79411 0.54286 0)
# Probe 465 (0.81665 0.57096 0)
# Probe 466 (0.8514 0.56454 0)
# Probe 467 (0.60476 0.29279 0)
# Probe 468 (0.8385 0.60051 0)
# Probe 469 (0.8741 0.59237 0)
# Probe 470 (0.7023 0.14531 0)
# Probe 471 (0.2904 0.58612 0)
# Probe 472 (0.61939 0.63819 0)
# Probe 473 (0.62907 0.65124 0)
# Probe 474 (0.539 0.16759 0)
# Probe 475 (0.58015 0.15985 0)
# Probe 476 (0.41801 0.72927 0)
# Probe 477 (0.2104 0.17116 0)
# Probe 478 (0.25549 0.16073 0)
# Probe 479 (0.62311 0.66592 0)
# Probe 480 (0.63836 0.6641 0)
# Probe 481 (0.63222 0.67828 0)
# Probe 482 (0.64763 0.67712 0)
# Probe 483 (0.16501 0.85503 0)
# Probe 484 (0.39429 0.78511 0)
# Probe 485 (0.17274 0.63731 0)
# Probe 486 (0.13589 0.64823 0)
# Probe 487 (0.43682 0.70842 0)
# Probe 488 (0.15256 0.75187 0)
# Probe 489 (0.88591 0.74976 0)
# Probe 490 (0.8724 0.78402 0)
# Probe 491 (0.83667 0.23102 0)
# Probe 492 (0.39571 0.69111 0)
# Probe 493 (0.85033 0.18756 0)
# Probe 494 (0.25088 0.46798 0)
# Probe 495 (0.15423 0.22776 0)
# Probe 496 (0.40903 0.85076 0)
# Probe 497 (0.41105 0.87419 0)
# Probe 498 (0.81913 0.15481 0)
# Probe 499 (0.14369 0.27189 0)
# Probe 500 (0.47953 0.66227 0)
# Probe 501 (0.47555 0.6768 0)
# Probe 502 (0.46 0.68054 0)
# Probe 503 (0.65421 0.66222 0)
# Probe 504 (0.66313 0.67581 0)
# Probe 505 (0.65665 0.69033 0)
# Probe 506 (0.6721 0.68931 0)
# Probe 507 (0.66538 0.70354 0)
# Probe 508 (0.68154 0.70236 0)
# Probe 509 (0.67405 0.7166 0)
# Probe 510 (0.6916 0.71689 0)
# Probe 511 (0.68308 0.73096 0)
# Probe 512 (0.59982 0.60981 0)
# Probe 513 (0.58799 0.59483 0)
# Probe 514 (0.58227 0.65737 0)
# Probe 515 (0.38523 0.88713 0)
# Probe 516 (0.40658 0.90285 0)
# Probe 517 (0.43116 0.89147 0)
# Probe 518 (0.6672 0.4104 0)
# Probe 519 (0.39827 0.76697 0)
# Probe 520 (0.38541 0.7526 0)
# Probe 521 (0.87346 0.69018 0)
# Probe 522 (0.65832 0.71673 0)
# Probe 523 (0.25989 0.59544 0)
# Probe 524 (0.26695 0.56319 0)
# Probe 525 (0.63566 0.63566 0)
# Probe 526 (0.69837 0.70065 0)
# Probe 527 (0.4121 0.82832 0)
# Probe 528 (0.71649 0.92057 0)
# Probe 529 (0.37729 0.65834 0)
# Probe 530 (0.52611 0.34639 0)
# Probe 531 (0.86396 0.14308 0)
# Probe 532 (0.61822 0.92873 0)
# Probe 533 (0.67014 0.66218 0)
# Probe 534 (0.28721 0.19222 0)
# Probe 535 (0.30005 0.14977 0)
# Probe 536 (0.33133 0.18087 0)
# Probe 537 (0.34379 0.13793 0)
# Probe 538 (0.37508 0.17003 0)
# Probe 539 (0.31352 0.10425 0)
# Probe 540 (0.38729 0.12711 0)
# Probe 541 (0.41822 0.15853 0)
# Probe 542 (0.43049 0.11611 0)
# Probe 543 (0.42898 0.91712 0)
# Probe 544 (0.45134 0.90475 0)
# Probe 545 (0.13358 0.82734 0)
# Probe 546 (0.12418 0.86949 0)
# Probe 547 (0.59823 0.22952 0)
# Probe 548 (0.59171 0.67033 0)
# Probe 549 (0.4895 0.67286 0)
# Probe 550 (0.4962 0.17832 0)
# Probe 551 (0.50661 0.13602 0)
# Probe 552 (0.41242 0.77843 0)
# Probe 553 (0.41516 0.76181 0)
# Probe 554 (0.74572 0.13443 0)
# Probe 555 (0.71473 0.10126 0)
# Probe 556 (0.82406 0.27306 0)
# Probe 557 (0.86712 0.26408 0)
# Probe 558 (0.85435 0.30629 0)
# Probe 559 (0.89759 0.29716 0)
# Probe 560 (0.88154 0.34602 0)
# Probe 561 (0.67118 0.11333 0)
# Probe 562 (0.8449 0.66639 0)
# Probe 563 (0.88462 0.65619 0)
# Probe 564 (0.64105 0.8999 0)
# Probe 565 (0.5118 0.4418 0)
# Probe 566 (0.25268 0.62797 0)
# Probe 567 (0.6217 0.43997 0)
# Probe 568 (0.7085 0.71546 0)
# Probe 569 (0.40942 0.79435 0)
# Probe 570 (0.78352 0.57554 0)
# Probe 571 (0.76248 0.55069 0)
# Probe 572 (0.42696 0.84115 0)
# Probe 573 (0.88817 0.55932 0)
# Probe 574 (0.91142 0.5852 0)
# Probe 575 (0.64957 0.88261 0)
# Probe 576 (0.66177 0.86131 0)
# Probe 577 (0.1066 0.62086 0)
# Probe 578 (0.09678 0.66104 0)
# Probe 579 (0.67186 0.26937 0)
# Probe 580 (0.19694 0.88186 0)
# Probe 581 (0.23176 0.86647 0)
# Probe 582 (0.60591 0.5928 0)
# Probe 583 (0.16561 0.6749 0)
# Probe 584 (0.20143 0.66413 0)
# Probe 585 (0.83753 0.78973 0)
# Probe 586 (0.8587 0.81838 0)
# Probe 587 (0.82421 0.82215 0)
# Probe 588 (0.84448 0.85234 0)
# Probe 589 (0.88253 0.84797 0)
# Probe 590 (0.62638 0.62216 0)
# Probe 591 (0.80614 0.85389 0)
# Probe 592 (0.83032 0.88676 0)
# Probe 593 (0.8327 0.11145 0)
# Probe 594 (0.4857 0.68537 0)
# Probe 595 (0.22524 0.12814 0)
# Probe 596 (0.1776 0.13788 0)
# Probe 597 (0.61611 0.68064 0)
# Probe 598 (0.62646 0.69158 0)
# Probe 599 (0.318 0.84075 0)
# Probe 600 (0.31277 0.86942 0)
# Probe 601 (0.33687 0.88715 0)
# Probe 602 (0.11188 0.23752 0)
# Probe 603 (0.12152 0.19122 0)
# Probe 604 (0.79652 0.89019 0)
# Probe 605 (0.75335 0.58205 0)
# Probe 606 (0.16863 0.34243 0)
# Probe 607 (0.12652 0.35413 0)
# Probe 608 (0.11709 0.39668 0)
# Probe 609 (0.08411 0.36545 0)
# Probe 610 (0.8961 0.17753 0)
# Probe 611 (0.22746 0.90951 0)
# Probe 612 (0.30315 0.89617 0)
# Probe 613 (0.90948 0.77789 0)
# Probe 614 (0.92438 0.7405 0)
# Probe 615 (0.06794 0.63445 0)
# Probe 616 (0.45241 0.87957 0)
# Probe 617 (0.43585 0.86862 0)
# Probe 618 (0.09399 0.32433 0)
# Probe 619 (0.64363 0.61945 0)
# Probe 620 (0.81585 0.92257 0)
# Probe 621 (0.59456 0.57611 0)
# Probe 622 (0.57562 0.58142 0)
# Probe 623 (0.68598 0.07662 0)
# Probe 624 (0.42609 0.77197 0)
# Probe 625 (0.43204 0.75602 0)
# Probe 626 (0.29651 0.55422 0)
# Probe 627 (0.27231 0.52855 0)
# Probe 628 (0.33462 0.92488 0)
# Probe 629 (0.46994 0.89197 0)
# Probe 630 (0.40647 0.20296 0)
# Probe 631 (0.42818 0.7886 0)
# Probe 632 (0.42229 0.80398 0)
# Probe 633 (0.39572 0.81808 0)
# Probe 634 (0.60702 0.66762 0)
# Probe 635 (0.60173 0.67987 0)
# Probe 636 (0.8853 0.39308 0)
# Probe 637 (0.91068 0.42739 0)
# Probe 638 (0.89525 0.46547 0)
# Probe 639 (0.93767 0.45772 0)
# Probe 640 (0.7382 0.89543 0)
# Probe 641 (0.49436 0.65837 0)
# Probe 642 (0.50396 0.6698 0)
# Probe 643 (0.18995 0.09077 0)
# Probe 644 (0.14203 0.1043 0)
# Probe 645 (0.66151 0.64685 0)
# Probe 646 (0.71689 0.76772 0)
# Probe 647 (0.698 0.77558 0)
# Probe 648 (0.69216 0.79197 0)
# Probe 649 (0.68204 0.77837 0)
# Probe 650 (0.6864 0.76378 0)
# Probe 651 (0.6757 0.79391 0)
# Probe 652 (0.68527 0.80655 0)
# Probe 653 (0.67037 0.76683 0)
# Probe 654 (0.67665 0.75426 0)
# Probe 655 (0.6911 0.74833 0)
# Probe 656 (0.66881 0.80945 0)
# Probe 657 (0.67794 0.82166 0)
# Probe 658 (0.69401 0.81998 0)
# Probe 659 (0.43166 0.96055 0)
# Probe 660 (0.47265 0.91417 0)
# Probe 661 (0.42911 0.82629 0)
# Probe 662 (0.43968 0.83399 0)
# Probe 663 (0.62986 0.88207 0)
# Probe 664 (0.62229 0.89823 0)
# Probe 665 (0.57165 0.64585 0)
# Probe 666 (0.55585 0.64912 0)
# Probe 667 (0.54407 0.63901 0)
# Probe 668 (0.5412 0.65369 0)
# Probe 669 (0.55286 0.66284 0)
# Probe 670 (0.5303 0.64512 0)
# Probe 671 (0.52745 0.65846 0)
# Probe 672 (0.23274 0.60225 0)
# Probe 673 (0.57704 0.66953 0)
# Probe 674 (0.4329 0.72379 0)
# Probe 675 (0.44628 0.7185 0)
# Probe 676 (0.45056 0.70488 0)
# Probe 677 (0.46031 0.71421 0)
# Probe 678 (0.46357 0.70173 0)
# Probe 679 (0.44099 0.69426 0)
# Probe 680 (0.43029 0.73962 0)
# Probe 681 (0.73337 0.95885 0)
# Probe 682 (0.44186 0.84961 0)
# Probe 683 (0.45166 0.8609 0)
# Probe 684 (0.83542 0.34419 0)
# Probe 685 (0.69339 0.64386 0)
# Probe 686 (0.39854 0.73667 0)
# Probe 687 (0.38718 0.72263 0)
# Probe 688 (0.73275 0.72102 0)
# Probe 689 (0.53936 0.66588 0)
# Probe 690 (0.64814 0.70495 0)
# Probe 691 (0.64652 0.71746 0)
# Probe 692 (0.65055 0.72677 0)
# Probe 693 (0.66434 0.7304 0)
# Probe 694 (0.64067 0.69089 0)
# Probe 695 (0.63286 0.70197 0)
# Probe 696 (0.48991 0.52553 0)
# Probe 697 (0.50986 0.54374 0)
# Probe 698 (0.5354 0.53704 0)
# Probe 699 (0.5277 0.55958 0)
# Probe 700 (0.50499 0.56745 0)
# Probe 701 (0.55098 0.55544 0)
# Probe 702 (0.5587 0.53089 0)
# Probe 703 (0.54074 0.57602 0)
# Probe 704 (0.28816 0.84796 0)
# Probe 705 (0.3384 0.72865 0)
# Probe 706 (0.3646 0.71902 0)
# Probe 707 (0.36337 0.69668 0)
# Probe 708 (0.35722 0.74128 0)
# Probe 709 (0.34981 0.68019 0)
# Probe 710 (0.47236 0.6903 0)
# Probe 711 (0.92709 0.33188 0)
# Probe 712 (0.94481 0.29475 0)
# Probe 713 (0.24161 0.53983 0)
# Probe 714 (0.72463 0.67763 0)
# Probe 715 (0.48961 0.90018 0)
# Probe 716 (0.62073 0.70202 0)
# Probe 717 (0.56738 0.65967 0)
# Probe 718 (0.56403 0.67298 0)
# Probe 719 (0.52801 0.67242 0)
# Probe 720 (0.48466 0.55534 0)
# Probe 721 (0.45773 0.55968 0)
# Probe 722 (0.05543 0.6787 0)
# Probe 723 (0.08817 0.70512 0)
# Probe 724 (0.08344 0.75675 0)
# Probe 725 (0.37317 0.92182 0)
# Probe 726 (0.75577 0.45418 0)
# Probe 727 (0.72131 0.46106 0)
# Probe 728 (0.69619 0.43533 0)
# Probe 729 (0.68805 0.46796 0)
# Probe 730 (0.7105 0.49223 0)
# Probe 731 (0.66526 0.44592 0)
# Probe 732 (0.74446 0.48684 0)
# Probe 733 (0.73021 0.51635 0)
# Probe 734 (0.70112 0.52002 0)
# Probe 735 (0.76547 0.51809 0)
# Probe 736 (0.71441 0.54657 0)
# Probe 737 (0.6271 0.57542 0)
# Probe 738 (0.95465 0.77418 0)
# Probe 739 (0.44795 0.67089 0)
# Probe 740 (0.43587 0.54154 0)
# Probe 741 (0.43481 0.56438 0)
# Probe 742 (0.44937 0.58504 0)
# Probe 743 (0.40902 0.55508 0)
# Probe 744 (0.3957 0.58436 0)
# Probe 745 (0.5859 0.68823 0)
# Probe 746 (0.49352 0.69486 0)
# Probe 747 (0.55577 0.68195 0)
# Probe 748 (0.53444 0.6828 0)
# Probe 749 (0.70488 0.39977 0)
# Probe 750 (0.48544 0.70295 0)
# Probe 751 (0.50931 0.9066 0)
# Probe 752 (0.52139 0.92612 0)
# Probe 753 (0.22468 0.95639 0)
# Probe 754 (0.68671 0.83482 0)
# Probe 755 (0.67147 0.83479 0)
# Probe 756 (0.46331 0.7254 0)
# Probe 757 (0.59685 0.69045 0)
# Probe 758 (0.87516 0.10043 0)
# Probe 759 (0.51425 0.68742 0)
# Probe 760 (0.90924 0.68237 0)
# Probe 761 (0.92234 0.64638 0)
# Probe 762 (0.44473 0.73293 0)
# Probe 763 (0.46232 0.14704 0)
# Probe 764 (0.47477 0.10662 0)
# Probe 765 (0.44815 0.07701 0)
# Probe 766 (0.51781 0.09337 0)
# Probe 767 (0.4553 0.93245 0)
# Probe 768 (0.65674 0.47573 0)
# Probe 769 (0.47296 0.58006 0)
# Probe 770 (0.44127 0.79512 0)
# Probe 771 (0.44298 0.77412 0)
# Probe 772 (0.67716 0.50147 0)
# Probe 773 (0.25876 0.43 0)
# Probe 774 (0.29685 0.41871 0)
# Probe 775 (0.3077 0.37864 0)
# Probe 776 (0.33435 0.40774 0)
# Probe 777 (0.32243 0.44494 0)
# Probe 778 (0.35705 0.43392 0)
# Probe 779 (0.37098 0.39812 0)
# Probe 780 (0.39325 0.425 0)
# Probe 781 (0.40467 0.39311 0)
# Probe 782 (0.42793 0.41627 0)
# Probe 783 (0.43884 0.38591 0)
# Probe 784 (0.4622 0.4095 0)
# Probe 785 (0.47359 0.38159 0)
# Probe 786 (0.49548 0.40131 0)
# Probe 787 (0.41864 0.45076 0)
# Probe 788 (0.34753 0.36732 0)
# Probe 789 (0.95487 0.5779 0)
# Probe 790 (0.44288 0.80591 0)
# Probe 791 (0.42564 0.62422 0)
# Probe 792 (0.45178 0.74354 0)
# Probe 793 (0.44415 0.76316 0)
# Probe 794 (0.64812 0.8365 0)
# Probe 795 (0.65459 0.8474 0)
# Probe 796 (0.64832 0.85805 0)
# Probe 797 (0.28757 0.45611 0)
# Probe 798 (0.31476 0.4845 0)
# Probe 799 (0.43345 0.60242 0)
# Probe 800 (0.65803 0.79493 0)
# Probe 801 (0.65854 0.77419 0)
# Probe 802 (0.4241 0.33977 0)
# Probe 803 (0.65776 0.80481 0)
# Probe 804 (0.57601 0.04224 0)
# Probe 805 (0.60001 0.08417 0)
# Probe 806 (0.6528 0.7534 0)
# Probe 807 (0.65914 0.74412 0)
# Probe 808 (0.35418 0.64484 0)
# Probe 809 (0.65232 0.82645 0)
# Probe 810 (0.85994 0.62922 0)
# Probe 811 (0.8248 0.63587 0)
# Probe 812 (0.80392 0.60835 0)
# Probe 813 (0.79895 0.63555 0)
# Probe 814 (0.80396 0.66108 0)
# Probe 815 (0.19519 0.70211 0)
# Probe 816 (0.22807 0.69193 0)
# Probe 817 (0.08624 0.83971 0)
# Probe 818 (0.08172 0.88417 0)
# Probe 819 (0.11486 0.91643 0)
# Probe 820 (0.10452 0.79618 0)
# Probe 821 (0.27887 0.49292 0)
# Probe 822 (0.36298 0.21293 0)
# Probe 823 (0.71799 0.69872 0)
# Probe 824 (0.04144 0.52489 0)
# Probe 825 (0.08083 0.55323 0)
# Probe 826 (0.08276 0.50391 0)
# Probe 827 (0.04142 0.47588 0)
# Probe 828 (0.07808 0.45499 0)
# Probe 829 (0.0471 0.33715 0)
# Probe 830 (0.49916 0.32009 0)
# Probe 831 (0.54529 0.51002 0)
# Probe 832 (0.41587 0.74537 0)
# Probe 833 (0.62303 0.87023 0)
# Probe 834 (0.32226 0.05202 0)
# Probe 835 (0.51637 0.66389 0)
# Probe 836 (0.4851 0.64592 0)
# Probe 837 (0.04051 0.77645 0)
# Probe 838 (0.27341 0.23594 0)
# Probe 839 (0.27493 0.04326 0)
# Probe 840 (0.95928 0.87495 0)
# Probe 841 (0.91471 0.89464 0)
# Probe 842 (0.26251 0.89344 0)
# Probe 843 (0.54847 0.12667 0)
# Probe 844 (0.81358 0.76232 0)
# Probe 845 (0.72323 0.04866 0)
# Probe 846 (0.68992 0.54529 0)
# Probe 847 (0.03801 0.22343 0)
# Probe 848 (0.82503 0.04255 0)
# Probe 849 (0.94848 0.17372 0)
# Probe 850 (0.60635 0.88327 0)
# Probe 851 (0.25 0.08552 0)
# Probe 852 (0.175 0.04396 0)
# Probe 853 (0.47688 0.87065 0)
# Probe 854 (0.49374 0.88386 0)
# Probe 855 (0.04284 0.1251 0)
# Probe 856 (0.08382 0.15672 0)
# Probe 857 (0.08634 0.10035 0)
# Probe 858 (0.92498 0.04329 0)
# Probe 859 (0.78072 0.28058 0)
# Probe 860 (0.22891 0.72966 0)
# Probe 861 (0.25557 0.71041 0)
# Probe 862 (0.76036 0.0888 0)
# Probe 863 (0.6646 0.75448 0)
# Probe 864 (0.15105 0.42522 0)
# Probe 865 (0.6806 0.22923 0)
# Probe 866 (0.64879 0.19884 0)
# Probe 867 (0.63925 0.24063 0)
# Probe 868 (0.66102 0.15525 0)
# Probe 869 (0.63155 0.11936 0)
# Probe 870 (0.58704 0.89348 0)
# Probe 871 (0.58468 0.907 0)
# Probe 872 (0.56758 0.90786 0)
# Probe 873 (0.58021 0.9261 0)
# Probe 874 (0.56012 0.92814 0)
# Probe 875 (0.59794 0.90276 0)
# Probe 876 (0.53371 0.89848 0)
# Probe 877 (0.51349 0.89204 0)
# Probe 878 (0.95961 0.62741 0)
# Probe 879 (0.60766 0.18987 0)
# Probe 880 (0.70322 0.68092 0)
# Probe 881 (0.68864 0.66633 0)
# Probe 882 (0.88005 0.22085 0)
# Probe 883 (0.15834 0.71327 0)
# Probe 884 (0.35687 0.09156 0)
# Probe 885 (0.30048 0.79879 0)
# Probe 886 (0.66347 0.30777 0)
# Probe 887 (0.63533 0.41005 0)
# Probe 888 (0.47139 0.03964 0)
# Probe 889 (0.16587 0.18242 0)
# Probe 890 (0.12773 0.68851 0)
# Probe 891 (0.12156 0.7289 0)
# Probe 892 (0.31786 0.22297 0)
# Probe 893 (0.43379 0.81321 0)
# Probe 894 (0.41683 0.24569 0)
# Probe 895 (0.77583 0.16625 0)
# Probe 896 (0.85573 0.47044 0)
# Probe 897 (0.12186 0.54108 0)
# Probe 898 (0.45012 0.18822 0)
# Probe 899 (0.20936 0.33083 0)
# Probe 900 (0.90993 0.13284 0)
# Probe 901 (0.55527 0.37028 0)
# Probe 902 (0.63735 0.72512 0)
# Probe 903 (0.40244 0.08235 0)
# Probe 904 (0.14306 0.46533 0)
# Probe 905 (0.49076 0.21959 0)
# Probe 906 (0.92413 0.50294 0)
# Probe 907 (0.88133 0.50275 0)
# Probe 908 (0.3774 0.2507 0)
# Probe 909 (0.54327 0.94431 0)
# Probe 910 (0.89564 0.62133 0)
# Probe 911 (0.54475 0.89958 0)
# Probe 912 (0.53769 0.91094 0)
# Probe 913 (0.2437 0.50543 0)
# Probe 914 (0.30163 0.26759 0)
# Probe 915 (0.91873 0.25313 0)
# Probe 916 (0.76731 0.31855 0)
# Probe 917 (0.66839 0.78034 0)
# Probe 918 (0.58049 0.26629 0)
# Probe 919 (0.2335 0.65912 0)
# Probe 920 (0.14421 0.78873 0)
# Probe 921 (0.49752 0.68232 0)
# Probe 922 (0.75214 0.92577 0)
# Probe 923 (0.46671 0.60106 0)
# Probe 924 (0.54174 0.43296 0)
# Probe 925 (0.92149 0.95253 0)
# Probe 926 (0.85456 0.91941 0)
# Probe 927 (0.15689 0.89592 0)
# Probe 928 (0.74483 0.60816 0)
# Probe 929 (0.31919 0.57842 0)
# Probe 930 (0.12849 0.96075 0)
# Probe 931 (0.08068 0.95567 0)
# Probe 932 (0.95947 0.07557 0)
# Probe 933 (0.23806 0.57297 0)
# Probe 934 (0.51691 0.65053 0)
# Probe 935 (0.07989 0.04714 0)
# Probe 936 (0.79274 0.6877 0)
# Probe 937 (0.11639 0.58224 0)
# Probe 938 (0.64629 0.50521 0)
# Probe 939 (0.77141 0.60007 0)
# Probe 940 (0.23633 0.82741 0)
# Probe 941 (0.60892 0.46785 0)
# Probe 942 (0.60876 0.55887 0)
# Probe 943 (0.62957 0.31826 0)
# Probe 944 (0.65979 0.61162 0)
# Probe 945 (0.04043 0.37997 0)
# Probe 946 (0.28015 0.64566 0)
# Probe 947 (0.31369 0.96095 0)
# Probe 948 (0.72755 0.59053 0)
# Probe 949 (0.47987 0.45103 0)
# Probe 950 (0.57011 0.59929 0)
# Probe 951 (0.44463 0.62399 0)
# Probe 952 (0.5239 0.37883 0)
# Probe 953 (0.95517 0.41799 0)
# Probe 954 (0.45504 0.69245 0)
# Probe 955 (0.39633 0.67113 0)
# Probe 956 (0.64505 0.64887 0)
# Probe 957 (0.13221 0.14864 0)
# Probe 958 (0.46986 0.71726 0)
# Probe 959 (0.50627 0.59066 0)
# Probe 960 (0.80897 0.31167 0)
# Probe 961 (0.64351 0.73502 0)
# Probe 962 (0.70869 0.75279 0)
# Probe 963 (0.70371 0.73552 0)
# Probe 964 (0.17804 0.30112 0)
# Probe 965 (0.66815 0.84928 0)
# Probe 966 (0.66418 0.82381 0)
# Probe 967 (0.60986 0.62394 0)
# Probe 968 (0.96006 0.72289 0)
# Probe 969 (0.67184 0.74122 0)
# Probe 970 (0.32337 0.81421 0)
# Probe 971 (0.63705 0.85456 0)