# Probe 0 (0 0 0)
# Probe 1 (1 0 0)
# Probe 2 (1 1 0)
# Probe 3 (0 1 0)
# Probe 4 (0.61 0.47 0)
# Probe 5 (0.51 0.37 0)
# Probe 6 (0.41 0.47 0)
# Probe 7 (0.51 0.57 0)
# Probe 8 (0.05 0 0)
# Probe 9 (0.1 0 0)
# Probe 10 (0.15 0 0)
# Probe 11 (0.2 0 0)
# Probe 12 (0.25 0 0)
# Probe 13 (0.3 0 0)
# Probe 14 (0.35 0 0)
# Probe 15 (0.4 0 0)
# Probe 16 (0.45 0 0)
# Probe 17 (0.5 0 0)
# Probe 18 (0.55 0 0)
# Probe 19 (0.6 0 0)
# Probe 20 (0.65 0 0)
# Probe 21 (0.7 0 0)
# Probe 22 (0.75 0 0)
# Probe 23 (0.8 0 0)
# Probe 24 (0.85 0 0)
# Probe 25 (0.9 0 0)
# Probe 26 (0.95 0 0)
# Probe 27 (1 0.05 0)
# Probe 28 (1 0.1 0)
# Probe 29 (1 0.15 0)
# Probe 30 (1 0.2 0)
# Probe 31 (1 0.25 0)
# Probe 32 (1 0.3 0)
# Probe 33 (1 0.35 0)
# Probe 34 (1 0.4 0)
# Probe 35 (1 0.45 0)
# Probe 36 (1 0.5 0)
# Probe 37 (1 0.55 0)
# Probe 38 (1 0.6 0)
# Probe 39 (1 0.65 0)
# Probe 40 (1 0.7 0)
# Probe 41 (1 0.75 0)
# Probe 42 (1 0.8 0)
# Probe 43 (1 0.85 0)
# Probe 44 (1 0.9 0)
# Probe 45 (1 0.95 0)
# Probe 46 (0.95 1 0)
# Probe 47 (0.9 1 0)
# Probe 48 (0.85 1 0)
# Probe 49 (0.8 1 0)
# Probe 50 (0.75 1 0)
# Probe 51 (0.7 1 0)
# Probe 52 (0.65 1 0)
# Probe 53 (0.6 1 0)
# Probe 54 (0.55 1 0)
# Probe 55 (0.5 1 0)
# Probe 56 (0.45 1 0)
# Probe 57 (0.4 1 0)
# Probe 58 (0.35 1 0)
# Probe 59 (0.3 1 0)
# Probe 60 (0.25 1 0)
# Probe 61 (0.2 1 0)
# Probe 62 (0.15 1 0)
# Probe 63 (0.1 1 0)
# Probe 64 (0.05 1 0)
# Probe 65 (0 0.95 0)
# Probe 66 (0 0.9 0)
# Probe 67 (0 0.85 0)
# Probe 68 (0 0.8 0)
# Probe 69 (0 0.75 0)
# Probe 70 (0 0.7 0)
# Probe 71 (0 0.65 0)
# Probe 72 (0 0.6 0)
# Probe 73 (0 0.55 0)
# Probe 74 (0 0.5 0)
# Probe 75 (0 0.45 0)
# Probe 76 (0 0.4 0)
# Probe 77 (0 0.35 0)
# Probe 78 (0 0.3 0)
# Probe 79 (0 0.25 0)
# Probe 80 (0 0.2 0)
# Probe 81 (0 0.15 0)
# Probe 82 (0 0.1 0)
# Probe 83 (0 0.05 0)
# Probe 84 (0.60952 0.4602 0)
# Probe 85 (0.60808 0.45049 0)
# Probe 86 (0.60569 0.44097 0)
# Probe 87 (0.60239 0.43173 0)
# Probe 88 (0.59819 0.42286 0)
# Probe 89 (0.59315 0.41444 0)
# Probe 90 (0.5873 0.40656 0)
# Probe 91 (0.58071 0.39929 0)
# Probe 92 (0.57344 0.3927 0)
# Probe 93 (0.56556 0.38685 0)
# Probe 94 (0.55714 0.38181 0)
# Probe 95 (0.54827 0.37761 0)
# Probe 96 (0.53903 0.37431 0)
# Probe 97 (0.52951 0.37192 0)
# Probe 98 (0.5198 0.37048 0)
# Probe 99 (0.5002 0.37048 0)
# Probe 100 (0.49049 0.37192 0)
# Probe 101 (0.48097 0.37431 0)
# Probe 102 (0.47173 0.37761 0)
# Probe 103 (0.46286 0.38181 0)
# Probe 104 (0.45444 0.38685 0)
# Probe 105 (0.44656 0.3927 0)
# Probe 106 (0.43929 0.39929 0)
# Probe 107 (0.4327 0.40656 0)
# Probe 108 (0.42685 0.41444 0)
# Probe 109 (0.42181 0.42286 0)
# Probe 110 (0.41761 0.43173 0)
# Probe 111 (0.41431 0.44097 0)
# Probe 112 (0.41192 0.45049 0)
# Probe 113 (0.41048 0.4602 0)
# Probe 114 (0.41048 0.4798 0)
# Probe 115 (0.41192 0.48951 0)
# Probe 116 (0.41431 0.49903 0)
# Probe 117 (0.41761 0.50827 0)
# Probe 118 (0.42181 0.51714 0)
# Probe 119 (0.42685 0.52556 0)
# Probe 120 (0.4327 0.53344 0)
# Probe 121 (0.43929 0.54071 0)
# Probe 122 (0.44656 0.5473 0)
# Probe 123 (0.45444 0.55315 0)
# Probe 124 (0.46286 0.55819 0)
# Probe 125 (0.47173 0.56239 0)
# Probe 126 (0.48097 0.56569 0)
# Probe 127 (0.49049 0.56808 0)
# Probe 128 (0.5002 0.56952 0)
# Probe 129 (0.5198 0.56952 0)
# Probe 130 (0.52951 0.56808 0)
# Probe 131 (0.53903 0.56569 0)
# Probe 132 (0.54827 0.56239 0)
# Probe 133 (0.55714 0.55819 0)
# Probe 134 (0.56556 0.55315 0)
# Probe 135 (0.57344 0.5473 0)
# Probe 136 (0.58071 0.54071 0)
# Probe 137 (0.5873 0.53344 0)
# Probe 138 (0.59315 0.52556 0)
# Probe 139 (0.59819 0.51714 0)
# Probe 140 (0.60239 0.50827 0)
# Probe 141 (0.60569 0.49903 0)
# Probe 142 (0.60808 0.48951 0)
# Probe 143 (0.60952 0.4798 0)
# Probe 144 (0.28184 0.9589 0)
# Probe 145 (0.72839 0.9584 0)
# Probe 146 (0.04133 0.67623 0)
# Probe 147 (0.03586 0.27553 0)
# Probe 148 (0.27461 0.04676 0)
# Probe 149 (0.95638 0.66995 0)
# Probe 150 (0.95788 0.2764 0)
# Probe 151 (0.71807 0.04522 0)
# Probe 152 (0.42992 0.95096 0)
# Probe 153 (0.57514 0.96152 0)
# Probe 154 (0.04351 0.5213 0)
# Probe 155 (0.95758 0.52327 0)
# Probe 156 (0.43014 0.04329 0)
# Probe 157 (0.575 0.0433 0)
# Probe 158 (0.04152 0.82364 0)
# Probe 159 (0.96095 0.83241 0)
# Probe 160 (0.95682 0.42814 0)
# Probe 161 (0.82499 0.04002 0)
# Probe 162 (0.17765 0.04081 0)
# Probe 163 (0.95037 0.17241 0)
# Probe 164 (0.04097 0.42289 0)
# Probe 165 (0.04188 0.175 0)
# Probe 166 (0.17814 0.95928 0)
# Probe 167 (0.82443 0.95745 0)
# Probe 168 (0.92044 0.95791 0)
# Probe 169 (0.04152 0.92739 0)
# Probe 170 (0.04684 0.07517 0)
# Probe 171 (0.92463 0.04817 0)
# Probe 172 (0.95829 0.4755 0)
# Probe 173 (0.91858 0.49906 0)
# Probe 174 (0.91726 0.54283 0)
# Probe 175 (0.88251 0.52081 0)
# Probe 176 (0.88091 0.56069 0)
# Probe 177 (0.84885 0.54085 0)
# Probe 178 (0.84811 0.50528 0)
# Probe 179 (0.84765 0.57738 0)
# Probe 180 (0.81812 0.55815 0)
# Probe 181 (0.61513 0.49656 0)
# Probe 182 (0.81674 0.59297 0)
# Probe 183 (0.78881 0.57526 0)
# Probe 184 (0.78731 0.60751 0)
# Probe 185 (0.76014 0.59148 0)
# Probe 186 (0.6031 0.52528 0)
# Probe 187 (0.75934 0.62138 0)
# Probe 188 (0.76187 0.5629 0)
# Probe 189 (0.73383 0.6075 0)
# Probe 190 (0.73338 0.63573 0)
# Probe 191 (0.7089 0.62107 0)
# Probe 192 (0.7072 0.64965 0)
# Probe 193 (0.58255 0.55036 0)
# Probe 194 (0.73263 0.66535 0)
# Probe 195 (0.7061 0.67889 0)
# Probe 196 (0.68098 0.66305 0)
# Probe 197 (0.67939 0.69174 0)
# Probe 198 (0.65555 0.67581 0)
# Probe 199 (0.55632 0.56791 0)
# Probe 200 (0.65344 0.7046 0)
# Probe 201 (0.63041 0.68825 0)
# Probe 202 (0.73187 0.69633 0)
# Probe 203 (0.6276 0.71676 0)
# Probe 204 (0.60465 0.701 0)
# Probe 205 (0.5259 0.57721 0)
# Probe 206 (0.60195 0.72908 0)
# Probe 207 (0.57843 0.7139 0)
# Probe 208 (0.57668 0.74224 0)
# Probe 209 (0.55287 0.72674 0)
# Probe 210 (0.55107 0.75491 0)
# Probe 211 (0.52775 0.73882 0)
# Probe 212 (0.53046 0.71162 0)
# Probe 213 (0.50568 0.72284 0)
# Probe 214 (0.48422 0.57504 0)
# Probe 215 (0.50033 0.74989 0)
# Probe 216 (0.48003 0.73398 0)
# Probe 217 (0.48475 0.70677 0)
# Probe 218 (0.4586 0.71709 0)
# Probe 219 (0.45431 0.74539 0)
# Probe 220 (0.43137 0.72791 0)
# Probe 221 (0.43742 0.69961 0)
# Probe 222 (0.40831 0.70406 0)
# Probe 223 (0.45446 0.56298 0)
# Probe 224 (0.40368 0.73821 0)
# Probe 225 (0.38054 0.71868 0)
# Probe 226 (0.38273 0.68734 0)
# Probe 227 (0.35791 0.69975 0)
# Probe 228 (0.36282 0.67024 0)
# Probe 229 (0.42979 0.54271 0)
# Probe 230 (0.33589 0.68064 0)
# Probe 231 (0.34121 0.65238 0)
# Probe 232 (0.31391 0.66166 0)
# Probe 233 (0.3193 0.6337 0)
# Probe 234 (0.30675 0.68995 0)
# Probe 235 (0.29193 0.64271 0)
# Probe 236 (0.29715 0.6137 0)
# Probe 237 (0.41338 0.5157 0)
# Probe 238 (0.26991 0.62384 0)
# Probe 239 (0.27518 0.59403 0)
# Probe 240 (0.64932 0.73371 0)
# Probe 241 (0.37502 0.75009 0)
# Probe 242 (0.50468 0.57825 0)
# Probe 243 (0.24681 0.6045 0)
# Probe 244 (0.25287 0.5749 0)
# Probe 245 (0.24142 0.63493 0)
# Probe 246 (0.28054 0.56496 0)
# Probe 247 (0.25956 0.54651 0)
# Probe 248 (0.28607 0.53795 0)
# Probe 249 (0.26597 0.51981 0)
# Probe 250 (0.40207 0.47528 0)
# Probe 251 (0.29081 0.51192 0)
# Probe 252 (0.27173 0.49475 0)
# Probe 253 (0.29534 0.48707 0)
# Probe 254 (0.27669 0.4709 0)
# Probe 255 (0.40459 0.44337 0)
# Probe 256 (0.30348 0.46406 0)
# Probe 257 (0.28256 0.44713 0)
# Probe 258 (0.30523 0.44013 0)
# Probe 259 (0.2879 0.42499 0)
# Probe 260 (0.30969 0.41735 0)
# Probe 261 (0.28925 0.40071 0)
# Probe 262 (0.31455 0.39359 0)
# Probe 263 (0.29719 0.37773 0)
# Probe 264 (0.3204 0.37023 0)
# Probe 265 (0.30105 0.3515 0)
# Probe 266 (0.32601 0.34509 0)
# Probe 267 (0.30649 0.32492 0)
# Probe 268 (0.33172 0.31948 0)
# Probe 269 (0.44483 0.38253 0)
# Probe 270 (0.31223 0.3 0)
# Probe 271 (0.33838 0.29276 0)
# Probe 272 (0.27716 0.35702 0)
# Probe 273 (0.26185 0.43189 0)
# Probe 274 (0.42325 0.40564 0)
# Probe 275 (0.31738 0.27299 0)
# Probe 276 (0.34549 0.2649 0)
# Probe 277 (0.28947 0.28294 0)
# Probe 278 (0.36805 0.2872 0)
# Probe 279 (0.37355 0.25727 0)
# Probe 280 (0.39387 0.27484 0)
# Probe 281 (0.47338 0.36746 0)
# Probe 282 (0.40017 0.24894 0)
# Probe 283 (0.41975 0.26686 0)
# Probe 284 (0.42618 0.24147 0)
# Probe 285 (0.44547 0.2591 0)
# Probe 286 (0.50474 0.36186 0)
# Probe 287 (0.45191 0.2339 0)
# Probe 288 (0.47137 0.252 0)
# Probe 289 (0.24676 0.50112 0)
# Probe 290 (0.47768 0.22601 0)
# Probe 291 (0.49696 0.24445 0)
# Probe 292 (0.41203 0.42366 0)
# Probe 293 (0.5254 0.36343 0)
# Probe 294 (0.30567 0.55557 0)
# Probe 295 (0.38032 0.22897 0)
# Probe 296 (0.57986 0.68266 0)
# Probe 297 (0.2955 0.25246 0)
# Probe 298 (0.26394 0.26451 0)
# Probe 299 (0.50369 0.21836 0)
# Probe 300 (0.52317 0.23688 0)
# Probe 301 (0.6565 0.65107 0)
# Probe 302 (0.57531 0.77146 0)
# Probe 303 (0.36855 0.6405 0)
# Probe 304 (0.53006 0.21042 0)
# Probe 305 (0.54955 0.22944 0)
# Probe 306 (0.54094 0.25708 0)
# Probe 307 (0.56827 0.2482 0)
# Probe 308 (0.55629 0.37216 0)
# Probe 309 (0.57579 0.2222 0)
# Probe 310 (0.59547 0.24213 0)
# Probe 311 (0.60319 0.2153 0)
# Probe 312 (0.62272 0.23638 0)
# Probe 313 (0.61148 0.26567 0)
# Probe 314 (0.60803 0.42353 0)
# Probe 315 (0.58977 0.39624 0)
# Probe 316 (0.64144 0.25757 0)
# Probe 317 (0.63205 0.28342 0)
# Probe 318 (0.65933 0.27803 0)
# Probe 319 (0.67102 0.25143 0)
# Probe 320 (0.68798 0.27328 0)
# Probe 321 (0.67715 0.29891 0)
# Probe 322 (0.70733 0.29446 0)
# Probe 323 (0.69585 0.32039 0)
# Probe 324 (0.61721 0.4541 0)
# Probe 325 (0.72584 0.3164 0)
# Probe 326 (0.71474 0.34206 0)
# Probe 327 (0.71616 0.26755 0)
# Probe 328 (0.74319 0.33788 0)
# Probe 329 (0.72914 0.36722 0)
# Probe 330 (0.76027 0.35964 0)
# Probe 331 (0.57488 0.38284 0)
# Probe 332 (0.77009 0.32906 0)
# Probe 333 (0.21703 0.61441 0)
# Probe 334 (0.21132 0.64757 0)
# Probe 335 (0.31389 0.50262 0)
# Probe 336 (0.68865 0.3433 0)
# Probe 337 (0.74966 0.38719 0)
# Probe 338 (0.72198 0.39457 0)
# Probe 339 (0.73957 0.41349 0)
# Probe 340 (0.7801 0.38608 0)
# Probe 341 (0.35107 0.33744 0)
# Probe 342 (0.71359 0.41802 0)
# Probe 343 (0.27185 0.22966 0)
# Probe 344 (0.23816 0.24104 0)
# Probe 345 (0.60796 0.29208 0)
# Probe 346 (0.71062 0.5956 0)
# Probe 347 (0.51035 0.18815 0)
# Probe 348 (0.81265 0.63247 0)
# Probe 349 (0.41468 0.29406 0)
# Probe 350 (0.72979 0.43761 0)
# Probe 351 (0.70595 0.44167 0)
# Probe 352 (0.2315 0.27786 0)
# Probe 353 (0.49025 0.26908 0)
# Probe 354 (0.32371 0.45203 0)
# Probe 355 (0.69059 0.42374 0)
# Probe 356 (0.33141 0.40874 0)
# Probe 357 (0.63188 0.20775 0)
# Probe 358 (0.24479 0.20569 0)
# Probe 359 (0.28039 0.19437 0)
# Probe 360 (0.39953 0.7705 0)
# Probe 361 (0.36808 0.78244 0)
# Probe 362 (0.72058 0.46039 0)
# Probe 363 (0.69825 0.4642 0)
# Probe 364 (0.18435 0.62401 0)
# Probe 365 (0.20448 0.2535 0)
# Probe 366 (0.19807 0.29004 0)
# Probe 367 (0.54804 0.78502 0)
# Probe 368 (0.57537 0.80307 0)
# Probe 369 (0.54384 0.81774 0)
# Probe 370 (0.23091 0.55466 0)
# Probe 371 (0.17794 0.6592 0)
# Probe 372 (0.20634 0.68265 0)
# Probe 373 (0.17022 0.69438 0)
# Probe 374 (0.20052 0.71924 0)
# Probe 375 (0.58301 0.19591 0)
# Probe 376 (0.39215 0.8062 0)
# Probe 377 (0.36067 0.81759 0)
# Probe 378 (0.33493 0.79404 0)
# Probe 379 (0.71246 0.48211 0)
# Probe 380 (0.6877 0.48524 0)
# Probe 381 (0.73678 0.47541 0)
# Probe 382 (0.75831 0.43562 0)
# Probe 383 (0.70394 0.50254 0)
# Probe 384 (0.6832 0.5062 0)
# Probe 385 (0.45682 0.20697 0)
# Probe 386 (0.62383 0.30713 0)
# Probe 387 (0.60249 0.31297 0)
# Probe 388 (0.61663 0.32787 0)
# Probe 389 (0.67658 0.46638 0)
# Probe 390 (0.62013 0.47598 0)
# Probe 391 (0.16272 0.73196 0)
# Probe 392 (0.19453 0.75782 0)
# Probe 393 (0.59658 0.33482 0)
# Probe 394 (0.58298 0.31856 0)
# Probe 395 (0.61135 0.34698 0)
# Probe 396 (0.32785 0.83043 0)
# Probe 397 (0.25222 0.16919 0)
# Probe 398 (0.21548 0.18097 0)
# Probe 399 (0.28841 0.15796 0)
# Probe 400 (0.57278 0.83732 0)
# Probe 401 (0.60392 0.82127 0)
# Probe 402 (0.54049 0.85243 0)
# Probe 403 (0.5112 0.83196 0)
# Probe 404 (0.69676 0.52254 0)
# Probe 405 (0.67637 0.52501 0)
# Probe 406 (0.66356 0.50929 0)
# Probe 407 (0.65853 0.52811 0)
# Probe 408 (0.66916 0.5426 0)
# Probe 409 (0.65092 0.54463 0)
# Probe 410 (0.66114 0.55945 0)
# Probe 411 (0.64088 0.56013 0)
# Probe 412 (0.6538 0.57626 0)
# Probe 413 (0.63535 0.57783 0)
# Probe 414 (0.1694 0.26555 0)
# Probe 415 (0.16328 0.3024 0)
# Probe 416 (0.19216 0.32672 0)
# Probe 417 (0.15768 0.33977 0)
# Probe 418 (0.18673 0.36309 0)
# Probe 419 (0.15225 0.37636 0)
# Probe 420 (0.18075 0.3989 0)
# Probe 421 (0.14701 0.41247 0)
# Probe 422 (0.1752 0.43482 0)
# Probe 423 (0.14135 0.44842 0)
# Probe 424 (0.14987 0.6357 0)
# Probe 425 (0.15715 0.59886 0)
# Probe 426 (0.62393 0.56468 0)
# Probe 427 (0.61791 0.57945 0)
# Probe 428 (0.62813 0.59432 0)
# Probe 429 (0.60757 0.5937 0)
# Probe 430 (0.29977 0.80786 0)
# Probe 431 (0.35271 0.84807 0)
# Probe 432 (0.1574 0.77231 0)
# Probe 433 (0.18882 0.79824 0)
# Probe 434 (0.50725 0.86844 0)
# Probe 435 (0.60266 0.8577 0)
# Probe 436 (0.63648 0.84024 0)
# Probe 437 (0.63399 0.8787 0)
# Probe 438 (0.66767 0.86111 0)
# Probe 439 (0.29223 0.84444 0)
# Probe 440 (0.17048 0.47044 0)
# Probe 441 (0.67055 0.82215 0)
# Probe 442 (0.70091 0.8452 0)
# Probe 443 (0.70371 0.80422 0)
# Probe 444 (0.7356 0.82747 0)
# Probe 445 (0.61978 0.61071 0)
# Probe 446 (0.60139 0.61139 0)
# Probe 447 (0.58946 0.59716 0)
# Probe 448 (0.58395 0.61236 0)
# Probe 449 (0.59518 0.63144 0)
# Probe 450 (0.57531 0.62859 0)
# Probe 451 (0.56597 0.61289 0)
# Probe 452 (0.55722 0.62803 0)
# Probe 453 (0.5488 0.61321 0)
# Probe 454 (0.54005 0.62772 0)
# Probe 455 (0.53271 0.6128 0)
# Probe 456 (0.52341 0.62711 0)
# Probe 457 (0.5311 0.64296 0)
# Probe 458 (0.51376 0.642 0)
# Probe 459 (0.50502 0.62465 0)
# Probe 460 (0.4958 0.64139 0)
# Probe 461 (0.48703 0.62647 0)
# Probe 462 (0.47772 0.6412 0)
# Probe 463 (0.46948 0.62527 0)
# Probe 464 (0.45941 0.64061 0)
# Probe 465 (0.45124 0.62125 0)
# Probe 466 (0.44054 0.63962 0)
# Probe 467 (0.43217 0.6224 0)
# Probe 468 (0.44073 0.60632 0)
# Probe 469 (0.42398 0.60624 0)
# Probe 470 (0.62905 0.34309 0)
# Probe 471 (0.62227 0.36044 0)
# Probe 472 (0.12218 0.35024 0)
# Probe 473 (0.57696 0.33651 0)
# Probe 474 (0.5646 0.32361 0)
# Probe 475 (0.12091 0.61101 0)
# Probe 476 (0.87803 0.59796 0)
# Probe 477 (0.15016 0.81379 0)
# Probe 478 (0.73848 0.78794 0)
# Probe 479 (0.77086 0.80726 0)
# Probe 480 (0.7725 0.76818 0)
# Probe 481 (0.80553 0.78792 0)
# Probe 482 (0.80987 0.74983 0)
# Probe 483 (0.84179 0.7696 0)
# Probe 484 (0.84407 0.80888 0)
# Probe 485 (0.8451 0.72881 0)
# Probe 486 (0.76928 0.84673 0)
# Probe 487 (0.76004 0.68135 0)
# Probe 488 (0.56943 0.30569 0)
# Probe 489 (0.5518 0.31138 0)
# Probe 490 (0.87835 0.75042 0)
# Probe 491 (0.54749 0.32858 0)
# Probe 492 (0.53485 0.31718 0)
# Probe 493 (0.12871 0.57302 0)
# Probe 494 (0.12556 0.74613 0)
# Probe 495 (0.18241 0.84089 0)
# Probe 496 (0.64297 0.53068 0)
# Probe 497 (0.43381 0.59221 0)
# Probe 498 (0.41693 0.59077 0)
# Probe 499 (0.40668 0.6049 0)
# Probe 500 (0.39914 0.58872 0)
# Probe 501 (0.41081 0.5755 0)
# Probe 502 (0.39371 0.56987 0)
# Probe 503 (0.38139 0.58651 0)
# Probe 504 (0.37493 0.56925 0)
# Probe 505 (0.38501 0.55447 0)
# Probe 506 (0.36838 0.55264 0)
# Probe 507 (0.37929 0.53947 0)
# Probe 508 (0.40392 0.49625 0)
# Probe 509 (0.36241 0.53661 0)
# Probe 510 (0.37325 0.52371 0)
# Probe 511 (0.36275 0.58427 0)
# Probe 512 (0.14251 0.85739 0)
# Probe 513 (0.44862 0.59225 0)
# Probe 514 (0.23067 0.74274 0)
# Probe 515 (0.47707 0.84698 0)
# Probe 516 (0.1366 0.48658 0)
# Probe 517 (0.1648 0.50777 0)
# Probe 518 (0.22325 0.14195 0)
# Probe 519 (0.18429 0.1548 0)
# Probe 520 (0.71856 0.51963 0)
# Probe 521 (0.42097 0.63931 0)
# Probe 522 (0.47929 0.6102 0)
# Probe 523 (0.3565 0.5207 0)
# Probe 524 (0.36722 0.50788 0)
# Probe 525 (0.50688 0.65682 0)
# Probe 526 (0.60644 0.36372 0)
# Probe 527 (0.61642 0.37639 0)
# Probe 528 (0.63261 0.37382 0)
# Probe 529 (0.62657 0.38938 0)
# Probe 530 (0.64293 0.38694 0)
# Probe 531 (0.63658 0.40228 0)
# Probe 532 (0.39441 0.54138 0)
# Probe 533 (0.46664 0.65754 0)
# Probe 534 (0.31634 0.18351 0)
# Probe 535 (0.32477 0.14701 0)
# Probe 536 (0.65353 0.40022 0)
# Probe 537 (0.64553 0.41519 0)
# Probe 538 (0.30217 0.77114 0)
# Probe 539 (0.21329 0.38595 0)
# Probe 540 (0.55705 0.59922 0)
# Probe 541 (0.60891 0.56574 0)
# Probe 542 (0.61404 0.55287 0)
# Probe 543 (0.66054 0.38367 0)
# Probe 544 (0.71015 0.54057 0)
# Probe 545 (0.53327 0.33427 0)
# Probe 546 (0.51934 0.3258 0)
# Probe 547 (0.52208 0.30614 0)
# Probe 548 (0.50588 0.31269 0)
# Probe 549 (0.50316 0.32911 0)
# Probe 550 (0.49014 0.31866 0)
# Probe 551 (0.48751 0.33504 0)
# Probe 552 (0.47402 0.32539 0)
# Probe 553 (0.47693 0.30766 0)
# Probe 554 (0.46053 0.31468 0)
# Probe 555 (0.45794 0.33243 0)
# Probe 556 (0.44445 0.32202 0)
# Probe 557 (0.44247 0.33934 0)
# Probe 558 (0.42869 0.32937 0)
# Probe 559 (0.42764 0.34567 0)
# Probe 560 (0.41292 0.33664 0)
# Probe 561 (0.41356 0.35536 0)
# Probe 562 (0.54415 0.34446 0)
# Probe 563 (0.39705 0.34404 0)
# Probe 564 (0.39613 0.36207 0)
# Probe 565 (0.4092 0.37329 0)
# Probe 566 (0.39382 0.38006 0)
# Probe 567 (0.38051 0.36852 0)
# Probe 568 (0.37923 0.38727 0)
# Probe 569 (0.3927 0.39671 0)
# Probe 570 (0.37914 0.40358 0)
# Probe 571 (0.56514 0.64293 0)
# Probe 572 (0.35081 0.54998 0)
# Probe 573 (0.68669 0.60726 0)
# Probe 574 (0.13299 0.27785 0)
# Probe 575 (0.13584 0.24142 0)
# Probe 576 (0.63968 0.61192 0)
# Probe 577 (0.35056 0.50484 0)
# Probe 578 (0.36132 0.49199 0)
# Probe 579 (0.34505 0.48915 0)
# Probe 580 (0.35573 0.47624 0)
# Probe 581 (0.37146 0.47918 0)
# Probe 582 (0.36624 0.46427 0)
# Probe 583 (0.48292 0.81121 0)
# Probe 584 (0.87894 0.70861 0)
# Probe 585 (0.20334 0.45525 0)
# Probe 586 (0.36168 0.37704 0)
# Probe 587 (0.47306 0.88487 0)
# Probe 588 (0.44199 0.86235 0)
# Probe 589 (0.50566 0.91334 0)
# Probe 590 (0.35282 0.17234 0)
# Probe 591 (0.36103 0.13614 0)
# Probe 592 (0.38906 0.16141 0)
# Probe 593 (0.39718 0.12542 0)
# Probe 594 (0.36921 0.09762 0)
# Probe 595 (0.42444 0.15051 0)
# Probe 596 (0.44159 0.35443 0)
# Probe 597 (0.43328 0.11467 0)
# Probe 598 (0.4606 0.14006 0)
# Probe 599 (0.46951 0.10395 0)
# Probe 600 (0.49627 0.12901 0)
# Probe 601 (0.50639 0.09203 0)
# Probe 602 (0.53751 0.12343 0)
# Probe 603 (0.08388 0.58599 0)
# Probe 604 (0.39783 0.3254 0)
# Probe 605 (0.38348 0.51046 0)
# Probe 606 (0.67996 0.55831 0)
# Probe 607 (0.66693 0.90071 0)
# Probe 608 (0.70959 0.7644 0)
# Probe 609 (0.29637 0.12022 0)
# Probe 610 (0.32407 0.60733 0)
# Probe 611 (0.38042 0.46701 0)
# Probe 612 (0.37587 0.45293 0)
# Probe 613 (0.36147 0.44964 0)
# Probe 614 (0.37145 0.43823 0)
# Probe 615 (0.35605 0.43486 0)
# Probe 616 (0.26146 0.8177 0)
# Probe 617 (0.25399 0.85618 0)
# Probe 618 (0.11406 0.64681 0)
# Probe 619 (0.44541 0.30392 0)
# Probe 620 (0.91489 0.73156 0)
# Probe 621 (0.53809 0.18129 0)
# Probe 622 (0.39419 0.41249 0)
# Probe 623 (0.84578 0.68771 0)
# Probe 624 (0.88009 0.66931 0)
# Probe 625 (0.55596 0.29241 0)
# Probe 626 (0.37087 0.60287 0)
# Probe 627 (0.10762 0.46247 0)
# Probe 628 (0.62067 0.40326 0)
# Probe 629 (0.43038 0.65771 0)
# Probe 630 (0.2837 0.88445 0)
# Probe 631 (0.24262 0.90155 0)
# Probe 632 (0.33993 0.51828 0)
# Probe 633 (0.5747 0.2864 0)
# Probe 634 (0.42724 0.79103 0)
# Probe 635 (0.62861 0.62807 0)
# Probe 636 (0.60002 0.37883 0)
# Probe 637 (0.5903 0.3663 0)
# Probe 638 (0.44362 0.57857 0)
# Probe 639 (0.45748 0.58057 0)
# Probe 640 (0.46292 0.59424 0)
# Probe 641 (0.40911 0.65708 0)
# Probe 642 (0.19291 0.11391 0)
# Probe 643 (0.15155 0.12672 0)
# Probe 644 (0.14254 0.16791 0)
# Probe 645 (0.11036 0.13783 0)
# Probe 646 (0.11978 0.09404 0)
# Probe 647 (0.23295 0.10474 0)
# Probe 648 (0.67133 0.39783 0)
# Probe 649 (0.68364 0.37963 0)
# Probe 650 (0.39032 0.4564 0)
# Probe 651 (0.63166 0.91868 0)
# Probe 652 (0.17439 0.8851 0)
# Probe 653 (0.1328 0.90181 0)
# Probe 654 (0.09853 0.87267 0)
# Probe 655 (0.16397 0.56439 0)
# Probe 656 (0.75543 0.71647 0)
# Probe 657 (0.41619 0.18721 0)
# Probe 658 (0.60055 0.55373 0)
# Probe 659 (0.59548 0.56427 0)
# Probe 660 (0.09911 0.5453 0)
# Probe 661 (0.78721 0.69548 0)
# Probe 662 (0.10627 0.25617 0)
# Probe 663 (0.49983 0.34329 0)
# Probe 664 (0.48726 0.35143 0)
# Probe 665 (0.40298 0.40422 0)
# Probe 666 (0.73274 0.53728 0)
# Probe 667 (0.74323 0.51564 0)
# Probe 668 (0.72229 0.5586 0)
# Probe 669 (0.50706 0.29496 0)
# Probe 670 (0.52413 0.28821 0)
# Probe 671 (0.38476 0.48111 0)
# Probe 672 (0.47542 0.06552 0)
# Probe 673 (0.91823 0.77095 0)
# Probe 674 (0.09754 0.28949 0)
# Probe 675 (0.10471 0.17965 0)
# Probe 676 (0.50727 0.04989 0)
# Probe 677 (0.60497 0.54275 0)
# Probe 678 (0.6192 0.53906 0)
# Probe 679 (0.3966 0.63658 0)
# Probe 680 (0.36742 0.42398 0)
# Probe 681 (0.37787 0.49605 0)
# Probe 682 (0.68131 0.44544 0)
# Probe 683 (0.66321 0.45394 0)
# Probe 684 (0.65832 0.46941 0)
# Probe 685 (0.64741 0.45771 0)
# Probe 686 (0.64082 0.47231 0)
# Probe 687 (0.65163 0.48389 0)
# Probe 688 (0.63618 0.48739 0)
# Probe 689 (0.65027 0.44286 0)
# Probe 690 (0.63657 0.44597 0)
# Probe 691 (0.64798 0.50081 0)
# Probe 692 (0.63327 0.50201 0)
# Probe 693 (0.67164 0.42741 0)
# Probe 694 (0.66252 0.94402 0)
# Probe 695 (0.34401 0.20994 0)
# Probe 696 (0.69514 0.40159 0)
# Probe 697 (0.34258 0.44616 0)
# Probe 698 (0.43616 0.90286 0)
# Probe 699 (0.40724 0.87457 0)
# Probe 700 (0.40754 0.39129 0)
# Probe 701 (0.42059 0.38268 0)
# Probe 702 (0.42488 0.36976 0)
# Probe 703 (0.6666 0.36429 0)
# Probe 704 (0.39098 0.52589 0)
# Probe 705 (0.4049 0.53194 0)
# Probe 706 (0.40873 0.54435 0)
# Probe 707 (0.37853 0.33337 0)
# Probe 708 (0.30538 0.58524 0)
# Probe 709 (0.32537 0.56997 0)
# Probe 710 (0.55945 0.34015 0)
# Probe 711 (0.57072 0.35138 0)
# Probe 712 (0.55579 0.35391 0)
# Probe 713 (0.54175 0.35814 0)
# Probe 714 (0.53234 0.34837 0)
# Probe 715 (0.52086 0.35236 0)
# Probe 716 (0.58563 0.35028 0)
# Probe 717 (0.701 0.36342 0)
# Probe 718 (0.34081 0.47359 0)
# Probe 719 (0.31099 0.52901 0)
# Probe 720 (0.51432 0.25937 0)
# Probe 721 (0.789 0.66259 0)
# Probe 722 (0.61147 0.39106 0)
# Probe 723 (0.60751 0.40313 0)
# Probe 724 (0.72919 0.72939 0)
# Probe 725 (0.6392 0.5109 0)
# Probe 726 (0.62896 0.51348 0)
# Probe 727 (0.5414 0.59955 0)
# Probe 728 (0.52662 0.59912 0)
# Probe 729 (0.54908 0.58827 0)
# Probe 730 (0.56265 0.58596 0)
# Probe 731 (0.51699 0.6116 0)
# Probe 732 (0.51247 0.59831 0)
# Probe 733 (0.50288 0.60881 0)
# Probe 734 (0.49732 0.59558 0)
# Probe 735 (0.39667 0.51389 0)
# Probe 736 (0.34428 0.62555 0)
# Probe 737 (0.42764 0.57789 0)
# Probe 738 (0.4226 0.56355 0)
# Probe 739 (0.40744 0.55988 0)
# Probe 740 (0.63375 0.45848 0)
# Probe 741 (0.32877 0.43104 0)
# Probe 742 (0.67907 0.63402 0)
# Probe 743 (0.46447 0.60936 0)
# Probe 744 (0.55533 0.69906 0)
# Probe 745 (0.53515 0.68588 0)
# Probe 746 (0.55778 0.67384 0)
# Probe 747 (0.95578 0.56928 0)
# Probe 748 (0.95016 0.6197 0)
# Probe 749 (0.46942 0.58115 0)
# Probe 750 (0.47606 0.5901 0)
# Probe 751 (0.4553 0.34932 0)
# Probe 752 (0.4534 0.36356 0)
# Probe 753 (0.47174 0.34434 0)
# Probe 754 (0.91838 0.45239 0)
# Probe 755 (0.91604 0.4084 0)
# Probe 756 (0.88126 0.43129 0)
# Probe 757 (0.87882 0.3893 0)
# Probe 758 (0.91255 0.3662 0)
# Probe 759 (0.87565 0.34822 0)
# Probe 760 (0.84612 0.41209 0)
# Probe 761 (0.90868 0.32622 0)
# Probe 762 (0.87199 0.30874 0)
# Probe 763 (0.83944 0.33105 0)
# Probe 764 (0.83613 0.29215 0)
# Probe 765 (0.86811 0.26925 0)
# Probe 766 (0.83061 0.25291 0)
# Probe 767 (0.86218 0.22965 0)
# Probe 768 (0.82507 0.21297 0)
# Probe 769 (0.85778 0.18891 0)
# Probe 770 (0.82116 0.1725 0)
# Probe 771 (0.78733 0.1965 0)
# Probe 772 (0.78353 0.15691 0)
# Probe 773 (0.75116 0.18076 0)
# Probe 774 (0.8553 0.14698 0)
# Probe 775 (0.74603 0.14311 0)
# Probe 776 (0.71458 0.16568 0)
# Probe 777 (0.70953 0.12865 0)
# Probe 778 (0.67921 0.15096 0)
# Probe 779 (0.67428 0.11247 0)
# Probe 780 (0.64288 0.13565 0)
# Probe 781 (0.79991 0.27628 0)
# Probe 782 (0.63817 0.09708 0)
# Probe 783 (0.77255 0.11698 0)
# Probe 784 (0.71972 0.2026 0)
# Probe 785 (0.60716 0.12116 0)
# Probe 786 (0.84723 0.44937 0)
# Probe 787 (0.81573 0.43318 0)
# Probe 788 (0.81564 0.46518 0)
# Probe 789 (0.89621 0.24053 0)
# Probe 790 (0.67018 0.07205 0)
# Probe 791 (0.64019 0.0527 0)
# Probe 792 (0.61224 0.15537 0)
# Probe 793 (0.57751 0.14485 0)
# Probe 794 (0.89787 0.16798 0)
# Probe 795 (0.89099 0.11979 0)
# Probe 796 (0.8521 0.10369 0)
# Probe 797 (0.38134 0.31215 0)
# Probe 798 (0.67227 0.49521 0)
# Probe 799 (0.2075 0.42091 0)
# Probe 800 (0.24245 0.40965 0)
# Probe 801 (0.24583 0.38013 0)
# Probe 802 (0.2333 0.4429 0)
# Probe 803 (0.87694 0.47649 0)
# Probe 804 (0.81818 0.52434 0)
# Probe 805 (0.78566 0.53928 0)
# Probe 806 (0.78849 0.50703 0)
# Probe 807 (0.66154 0.61165 0)
# Probe 808 (0.63366 0.6625 0)
# Probe 809 (0.6062 0.67043 0)
# Probe 810 (0.58692 0.66119 0)
# Probe 811 (0.57276 0.59844 0)
# Probe 812 (0.57754 0.58315 0)
# Probe 813 (0.46503 0.27452 0)
# Probe 814 (0.64597 0.17435 0)
# Probe 815 (0.68455 0.18657 0)
# Probe 816 (0.50967 0.69337 0)
# Probe 817 (0.48797 0.68176 0)
# Probe 818 (0.46476 0.69171 0)
# Probe 819 (0.43656 0.56744 0)
# Probe 820 (0.61596 0.64492 0)
# Probe 821 (0.4407 0.36942 0)
# Probe 822 (0.39215 0.49248 0)
# Probe 823 (0.62977 0.41647 0)
# Probe 824 (0.63843 0.42992 0)
# Probe 825 (0.62491 0.43663 0)
# Probe 826 (0.60186 0.57843 0)
# Probe 827 (0.64831 0.30278 0)
# Probe 828 (0.66528 0.32359 0)
# Probe 829 (0.34441 0.36108 0)
# Probe 830 (0.33943 0.38553 0)
# Probe 831 (0.35062 0.40137 0)
# Probe 832 (0.37956 0.42963 0)
# Probe 833 (0.68887 0.2225 0)
# Probe 834 (0.45004 0.82296 0)
# Probe 835 (0.53495 0.58667 0)
# Probe 836 (0.03978 0.57216 0)
# Probe 837 (0.04677 0.62402 0)
# Probe 838 (0.83793 0.37297 0)
# Probe 839 (0.81445 0.34931 0)
# Probe 840 (0.78671 0.44941 0)
# Probe 841 (0.22458 0.35242 0)
# Probe 842 (0.22613 0.31517 0)
# Probe 843 (0.25323 0.33555 0)
# Probe 844 (0.26174 0.30097 0)
# Probe 845 (0.75393 0.2251 0)
# Probe 846 (0.79352 0.2382 0)
# Probe 847 (0.7674 0.26418 0)
# Probe 848 (0.61182 0.50646 0)
# Probe 849 (0.6174 0.48676 0)
# Probe 850 (0.69043 0.58087 0)
# Probe 851 (0.80271 0.31816 0)
# Probe 852 (0.3136 0.48204 0)
# Probe 853 (0.03979 0.468 0)
# Probe 854 (0.59209 0.54401 0)
# Probe 855 (0.57456 0.55705 0)
# Probe 856 (0.94708 0.34249 0)
# Probe 857 (0.4154 0.52579 0)
# Probe 858 (0.54634 0.57152 0)
# Probe 859 (0.40217 0.45351 0)
# Probe 860 (0.40122 0.46423 0)
# Probe 861 (0.44418 0.5584 0)
# Probe 862 (0.46349 0.56978 0)
# Probe 863 (0.42302 0.53441 0)
# Probe 864 (0.60779 0.51619 0)
# Probe 865 (0.61372 0.52544 0)
# Probe 866 (0.42996 0.39747 0)
# Probe 867 (0.53633 0.57513 0)
# Probe 868 (0.56572 0.56296 0)
# Probe 869 (0.57557 0.56869 0)
# Probe 870 (0.61837 0.4647 0)
# Probe 871 (0.48367 0.36487 0)
# Probe 872 (0.47608 0.35752 0)
# Probe 873 (0.46377 0.37118 0)
# Probe 874 (0.23024 0.47481 0)
# Probe 875 (0.1977 0.49044 0)
# Probe 876 (0.19543 0.52307 0)
# Probe 877 (0.45333 0.37589 0)
# Probe 878 (0.43722 0.5503 0)
# Probe 879 (0.49429 0.36241 0)
# Probe 880 (0.51525 0.57831 0)
# Probe 881 (0.4942 0.57703 0)
# Probe 882 (0.43739 0.3899 0)
# Probe 883 (0.10009 0.50018 0)
# Probe 884 (0.40659 0.50825 0)
# Probe 885 (0.40279 0.4859 0)
# Probe 886 (0.61597 0.44388 0)
# Probe 887 (0.40774 0.43329 0)
# Probe 888 (0.39765 0.43624 0)
# Probe 889 (0.41756 0.41461 0)
# Probe 890 (0.63442 0.54257 0)
# Probe 891 (0.30528 0.21913 0)
# Probe 892 (0.61204 0.43349 0)
# Probe 893 (0.77444 0.04144 0)
# Probe 894 (0.58278 0.3897 0)
# Probe 895 (0.56595 0.37687 0)
# Probe 896 (0.56564 0.36433 0)
# Probe 897 (0.22637 0.04139 0)
# Probe 898 (0.67285 0.78481 0)
# Probe 899 (0.63793 0.80341 0)
# Probe 900 (0.40184 0.42473 0)
# Probe 901 (0.5769 0.37164 0)
# Probe 902 (0.96045 0.2251 0)
# Probe 903 (0.32793 0.54644 0)
# Probe 904 (0.78613 0.41872 0)
# Probe 905 (0.81179 0.4 0)
# Probe 906 (0.03764 0.22481 0)
# Probe 907 (0.23279 0.95178 0)
# Probe 908 (0.77595 0.9578 0)
# Probe 909 (0.80007 0.9175 0)
# Probe 910 (0.84756 0.91591 0)
# Probe 911 (0.82301 0.88257 0)
# Probe 912 (0.86996 0.87714 0)
# Probe 913 (0.75334 0.9185 0)
# Probe 914 (0.89498 0.91556 0)
# Probe 915 (0.92042 0.86469 0)
# Probe 916 (0.87974 0.83304 0)
# Probe 917 (0.51341 0.33909 0)
# Probe 918 (0.53829 0.662 0)
# Probe 919 (0.37475 0.04968 0)
# Probe 920 (0.32371 0.04152 0)
# Probe 921 (0.76132 0.46441 0)
# Probe 922 (0.13779 0.53186 0)
# Probe 923 (0.42158 0.67838 0)
# Probe 924 (0.51654 0.79861 0)
# Probe 925 (0.60764 0.78601 0)
# Probe 926 (0.63612 0.76599 0)
# Probe 927 (0.0424 0.37656 0)
# Probe 928 (0.0787 0.40091 0)
# Probe 929 (0.04339 0.32787 0)
# Probe 930 (0.52649 0.95782 0)
# Probe 931 (0.48005 0.95723 0)
# Probe 932 (0.04147 0.72528 0)
# Probe 933 (0.07542 0.70241 0)
# Probe 934 (0.37672 0.95728 0)
# Probe 935 (0.32878 0.95853 0)
# Probe 936 (0.35144 0.91784 0)
# Probe 937 (0.55878 0.91692 0)
# Probe 938 (0.56543 0.57446 0)
# Probe 939 (0.92003 0.64869 0)
# Probe 940 (0.04153 0.77486 0)
# Probe 941 (0.07909 0.8007 0)
# Probe 942 (0.34829 0.60115 0)
# Probe 943 (0.63921 0.35741 0)
# Probe 944 (0.64872 0.34109 0)
# Probe 945 (0.38579 0.4416 0)
# Probe 946 (0.35818 0.31373 0)
# Probe 947 (0.66797 0.59281 0)
# Probe 948 (0.19172 0.58825 0)
# Probe 949 (0.41691 0.83264 0)
# Probe 950 (0.87481 0.03887 0)
# Probe 951 (0.04294 0.12563 0)
# Probe 952 (0.12576 0.04752 0)
# Probe 953 (0.95969 0.12361 0)
# Probe 954 (0.1274 0.95169 0)
# Probe 955 (0.36814 0.35143 0)
# Probe 956 (0.23569 0.70566 0)
# Probe 957 (0.26311 0.72781 0)
# Probe 958 (0.26406 0.76022 0)
# Probe 959 (0.26955 0.69148 0)
# Probe 960 (0.23813 0.66912 0)
# Probe 961 (0.23364 0.78435 0)
# Probe 962 (0.26506 0.39619 0)
# Probe 963 (0.75515 0.53699 0)
# Probe 964 (0.75137 0.08039 0)
# Probe 965 (0.04986 0.87637 0)
# Probe 966 (0.57324 0.11071 0)
# Probe 967 (0.48684 0.16425 0)
# Probe 968 (0.61901 0.42485 0)
# Probe 969 (0.341 0.75951 0)
# Probe 970 (0.3171 0.73754 0)