# Probe 0 (0 0 0)
# Probe 1 (1 0 0)
# Probe 2 (1 1 0)
# Probe 3 (0 1 0)
# Probe 4 (0.67 0.36 0)
# Probe 5 (0.57 0.26 0)
# Probe 6 (0.47 0.36 0)
# Probe 7 (0.57 0.46 0)
# Probe 8 (0.05 0 0)
# Probe 9 (0.1 0 0)
# Probe 10 (0.15 0 0)
# Probe 11 (0.2 0 0)
# Probe 12 (0.25 0 0)
# Probe 13 (0.3 0 0)
# Probe 14 (0.35 0 0)
# Probe 15 (0.4 0 0)
# Probe 16 (0.45 0 0)
# Probe 17 (0.5 0 0)
# Probe 18 (0.55 0 0)
# Probe 19 (0.6 0 0)
# Probe 20 (0.65 0 0)
# Probe 21 (0.7 0 0)
# Probe 22 (0.75 0 0)
# Probe 23 (0.8 0 0)
# Probe 24 (0.85 0 0)
# Probe 25 (0.9 0 0)
# Probe 26 (0.95 0 0)
# Probe 27 (1 0.05 0)
# Probe 28 (1 0.1 0)
# Probe 29 (1 0.15 0)
# Probe 30 (1 0.2 0)
# Probe 31 (1 0.25 0)
# Probe 32 (1 0.3 0)
# Probe 33 (1 0.35 0)
# Probe 34 (1 0.4 0)
# Probe 35 (1 0.45 0)
# Probe 36 (1 0.5 0)
# Probe 37 (1 0.55 0)
# Probe 38 (1 0.6 0)
# Probe 39 (1 0.65 0)
# Probe 40 (1 0.7 0)
# Probe 41 (1 0.75 0)
# Probe 42 (1 0.8 0)
# Probe 43 (1 0.85 0)
# Probe 44 (1 0.9 0)
# Probe 45 (1 0.95 0)
# Probe 46 (0.95 1 0)
# Probe 47 (0.9 1 0)
# Probe 48 (0.85 1 0)
# Probe 49 (0.8 1 0)
# Probe 50 (0.75 1 0)
# Probe 51 (0.7 1 0)
# Probe 52 (0.65 1 0)
# Probe 53 (0.6 1 0)
# Probe 54 (0.55 1 0)
# Probe 55 (0.5 1 0)
# Probe 56 (0.45 1 0)
# Probe 57 (0.4 1 0)
# Probe 58 (0.35 1 0)
# Probe 59 (0.3 1 0)
# Probe 60 (0.25 1 0)
# Probe 61 (0.2 1 0)
# Probe 62 (0.15 1 0)
# Probe 63 (0.1 1 0)
# Probe 64 (0.05 1 0)
# Probe 65 (0 0.95 0)
# Probe 66 (0 0.9 0)
# Probe 67 (0 0.85 0)
# Probe 68 (0 0.8 0)
# Probe 69 (0 0.75 0)
# Probe 70 (0 0.7 0)
# Probe 71 (0 0.65 0)
# Probe 72 (0 0.6 0)
# Probe 73 (0 0.55 0)
# Probe 74 (0 0.5 0)
# Probe 75 (0 0.45 0)
# Probe 76 (0 0.4 0)
# Probe 77 (0 0.35 0)
# Probe 78 (0 0.3 0)
# Probe 79 (0 0.25 0)
# Probe 80 (0 0.2 0)
# Probe 81 (0 0.15 0)
# Probe 82 (0 0.1 0)
# Probe 83 (0 0.05 0)
# Probe 84 (0.66952 0.3502 0)
# Probe 85 (0.66808 0.34049 0)
# Probe 86 (0.66569 0.33097 0)
# Probe 87 (0.66239 0.32173 0)
# Probe 88 (0.65819 0.31286 0)
# Probe 89 (0.65315 0.30444 0)
# Probe 90 (0.6473 0.29656 0)
# Probe 91 (0.64071 0.28929 0)
# Probe 92 (0.63344 0.2827 0)
# Probe 93 (0.62556 0.27685 0)
# Probe 94 (0.61714 0.27181 0)
# Probe 95 (0.60827 0.26761 0)
# Probe 96 (0.59903 0.26431 0)
# Probe 97 (0.58951 0.26192 0)
# Probe 98 (0.5798 0.26048 0)
# Probe 99 (0.5602 0.26048 0)
# Probe 100 (0.55049 0.26192 0)
# Probe 101 (0.54097 0.26431 0)
# Probe 102 (0.53173 0.26761 0)
# Probe 103 (0.52286 0.27181 0)
# Probe 104 (0.51444 0.27685 0)
# Probe 105 (0.50656 0.2827 0)
# Probe 106 (0.49929 0.28929 0)
# Probe 107 (0.4927 0.29656 0)
# Probe 108 (0.48685 0.30444 0)
# Probe 109 (0.48181 0.31286 0)
# Probe 110 (0.47761 0.32173 0)
# Probe 111 (0.47431 0.33097 0)
# Probe 112 (0.47192 0.34049 0)
# Probe 113 (0.47048 0.3502 0)
# Probe 114 (0.47048 0.3698 0)
# Probe 115 (0.47192 0.37951 0)
# Probe 116 (0.47431 0.38903 0)
# Probe 117 (0.47761 0.39827 0)
# Probe 118 (0.48181 0.40714 0)
# Probe 119 (0.48685 0.41556 0)
# Probe 120 (0.4927 0.42344 0)
# Probe 121 (0.49929 0.43071 0)
# Probe 122 (0.50656 0.4373 0)
# Probe 123 (0.51444 0.44315 0)
# Probe 124 (0.52286 0.44819 0)
# Probe 125 (0.53173 0.45239 0)
# Probe 126 (0.54097 0.45569 0)
# Probe 127 (0.55049 0.45808 0)
# Probe 128 (0.5602 0.45952 0)
# Probe 129 (0.5798 0.45952 0)
# Probe 130 (0.58951 0.45808 0)
# Probe 131 (0.59903 0.45569 0)
# Probe 132 (0.60827 0.45239 0)
# Probe 133 (0.61714 0.44819 0)
# Probe 134 (0.62556 0.44315 0)
# Probe 135 (0.63344 0.4373 0)
# Probe 136 (0.64071 0.43071 0)
# Probe 137 (0.6473 0.42344 0)
# Probe 138 (0.65315 0.41556 0)
# Probe 139 (0.65819 0.40714 0)
# Probe 140 (0.66239 0.39827 0)
# Probe 141 (0.66569 0.38903 0)
# Probe 142 (0.66808 0.37951 0)
# Probe 143 (0.66952 0.3698 0)
# Probe 144 (0.32661 0.95897 0)
# Probe 145 (0.04394 0.62428 0)
# Probe 146 (0.67691 0.9588 0)
# Probe 147 (0.5237 0.95756 0)
# Probe 148 (0.95437 0.67046 0)
# Probe 149 (0.04483 0.47538 0)
# Probe 150 (0.04705 0.28338 0)
# Probe 151 (0.27841 0.03986 0)
# Probe 152 (0.95699 0.52987 0)
# Probe 153 (0.9582 0.22479 0)
# Probe 154 (0.77856 0.04472 0)
# Probe 155 (0.9569 0.3723 0)
# Probe 156 (0.0433 0.775 0)
# Probe 157 (0.42299 0.03665 0)
# Probe 158 (0.62211 0.04223 0)
# Probe 159 (0.5543 0.25267 0)
# Probe 160 (0.58578 0.25314 0)
# Probe 161 (0.82352 0.95958 0)
# Probe 162 (0.52421 0.04386 0)
# Probe 163 (0.17515 0.96115 0)
# Probe 164 (0.9567 0.825 0)
# Probe 165 (0.17509 0.03858 0)
# Probe 166 (0.04321 0.36924 0)
# Probe 167 (0.0433 0.175 0)
# Probe 168 (0.42717 0.95829 0)
# Probe 169 (0.86896 0.04648 0)
# Probe 170 (0.04194 0.87488 0)
# Probe 171 (0.9567 0.125 0)
# Probe 172 (0.92657 0.95836 0)
# Probe 173 (0.046 0.07845 0)
# Probe 174 (0.07727 0.95008 0)
# Probe 175 (0.57478 0.041 0)
# Probe 176 (0.5991 0.07837 0)
# Probe 177 (0.63961 0.0807 0)
# Probe 178 (0.62026 0.11168 0)
# Probe 179 (0.582 0.11197 0)
# Probe 180 (0.6541 0.11409 0)
# Probe 181 (0.62572 0.26704 0)
# Probe 182 (0.60651 0.25796 0)
# Probe 183 (0.63752 0.14114 0)
# Probe 184 (0.66713 0.14344 0)
# Probe 185 (0.65055 0.17055 0)
# Probe 186 (0.6801 0.16976 0)
# Probe 187 (0.62334 0.16495 0)
# Probe 188 (0.6669 0.19316 0)
# Probe 189 (0.6923 0.19336 0)
# Probe 190 (0.65065 0.28717 0)
# Probe 191 (0.7084 0.17137 0)
# Probe 192 (0.71914 0.19999 0)
# Probe 193 (0.73768 0.17349 0)
# Probe 194 (0.74951 0.20065 0)
# Probe 195 (0.73551 0.22395 0)
# Probe 196 (0.66803 0.31366 0)
# Probe 197 (0.76144 0.2267 0)
# Probe 198 (0.74635 0.24842 0)
# Probe 199 (0.77198 0.252 0)
# Probe 200 (0.75596 0.27334 0)
# Probe 201 (0.67721 0.3441 0)
# Probe 202 (0.78224 0.27704 0)
# Probe 203 (0.76251 0.29981 0)
# Probe 204 (0.79272 0.30207 0)
# Probe 205 (0.77687 0.32391 0)
# Probe 206 (0.77934 0.20376 0)
# Probe 207 (0.80421 0.32709 0)
# Probe 208 (0.78811 0.34964 0)
# Probe 209 (0.67721 0.3759 0)
# Probe 210 (0.81544 0.35261 0)
# Probe 211 (0.79856 0.37472 0)
# Probe 212 (0.77268 0.37164 0)
# Probe 213 (0.78212 0.39586 0)
# Probe 214 (0.66819 0.40669 0)
# Probe 215 (0.80797 0.39974 0)
# Probe 216 (0.79095 0.42031 0)
# Probe 217 (0.7626 0.41709 0)
# Probe 218 (0.77303 0.44075 0)
# Probe 219 (0.79954 0.4455 0)
# Probe 220 (0.7811 0.46458 0)
# Probe 221 (0.75644 0.4595 0)
# Probe 222 (0.76341 0.48271 0)
# Probe 223 (0.64263 0.44015 0)
# Probe 224 (0.73998 0.47694 0)
# Probe 225 (0.74589 0.5004 0)
# Probe 226 (0.7706 0.50669 0)
# Probe 227 (0.75206 0.52421 0)
# Probe 228 (0.72779 0.51779 0)
# Probe 229 (0.73333 0.54157 0)
# Probe 230 (0.70984 0.53479 0)
# Probe 231 (0.71532 0.55931 0)
# Probe 232 (0.69161 0.55214 0)
# Probe 233 (0.69706 0.57676 0)
# Probe 234 (0.67342 0.56948 0)
# Probe 235 (0.67817 0.59362 0)
# Probe 236 (0.65482 0.58672 0)
# Probe 237 (0.65974 0.61123 0)
# Probe 238 (0.63684 0.60402 0)
# Probe 239 (0.64138 0.62939 0)
# Probe 240 (0.61544 0.62152 0)
# Probe 241 (0.57478 0.46769 0)
# Probe 242 (0.66699 0.63406 0)
# Probe 243 (0.62215 0.64791 0)
# Probe 244 (0.59553 0.64183 0)
# Probe 245 (0.7212 0.58427 0)
# Probe 246 (0.6025 0.66714 0)
# Probe 247 (0.57594 0.65906 0)
# Probe 248 (0.57004 0.63165 0)
# Probe 249 (0.55001 0.65034 0)
# Probe 250 (0.54379 0.6237 0)
# Probe 251 (0.52463 0.64193 0)
# Probe 252 (0.5432 0.46446 0)
# Probe 253 (0.51852 0.61602 0)
# Probe 254 (0.49907 0.63409 0)
# Probe 255 (0.49292 0.60784 0)
# Probe 256 (0.47325 0.62607 0)
# Probe 257 (0.468 0.59405 0)
# Probe 258 (0.44708 0.61735 0)
# Probe 259 (0.44018 0.58881 0)
# Probe 260 (0.41991 0.60983 0)
# Probe 261 (0.41348 0.5816 0)
# Probe 262 (0.49722 0.4403 0)
# Probe 263 (0.39231 0.60133 0)
# Probe 264 (0.38644 0.57302 0)
# Probe 265 (0.39867 0.63062 0)
# Probe 266 (0.36958 0.6217 0)
# Probe 267 (0.47792 0.65245 0)
# Probe 268 (0.55759 0.67856 0)
# Probe 269 (0.60651 0.46204 0)
# Probe 270 (0.37604 0.65217 0)
# Probe 271 (0.34508 0.64259 0)
# Probe 272 (0.35201 0.67518 0)
# Probe 273 (0.31935 0.66485 0)
# Probe 274 (0.31272 0.63065 0)
# Probe 275 (0.40714 0.55427 0)
# Probe 276 (0.3813 0.54564 0)
# Probe 277 (0.40113 0.52755 0)
# Probe 278 (0.37636 0.51941 0)
# Probe 279 (0.47729 0.41501 0)
# Probe 280 (0.53668 0.59828 0)
# Probe 281 (0.77528 0.53316 0)
# Probe 282 (0.3267 0.69972 0)
# Probe 283 (0.36004 0.70842 0)
# Probe 284 (0.6327 0.5781 0)
# Probe 285 (0.29192 0.68785 0)
# Probe 286 (0.52384 0.45757 0)
# Probe 287 (0.39565 0.50284 0)
# Probe 288 (0.37204 0.49455 0)
# Probe 289 (0.35166 0.51169 0)
# Probe 290 (0.34708 0.48516 0)
# Probe 291 (0.32573 0.50335 0)
# Probe 292 (0.32106 0.47539 0)
# Probe 293 (0.34235 0.45828 0)
# Probe 294 (0.31696 0.44823 0)
# Probe 295 (0.46463 0.38617 0)
# Probe 296 (0.33743 0.4316 0)
# Probe 297 (0.31272 0.42171 0)
# Probe 298 (0.33301 0.40545 0)
# Probe 299 (0.46109 0.35468 0)
# Probe 300 (0.30803 0.39557 0)
# Probe 301 (0.3317 0.37621 0)
# Probe 302 (0.30466 0.36901 0)
# Probe 303 (0.3243 0.3512 0)
# Probe 304 (0.30026 0.34321 0)
# Probe 305 (0.3216 0.32598 0)
# Probe 306 (0.4897 0.28722 0)
# Probe 307 (0.47203 0.31366 0)
# Probe 308 (0.2957 0.31671 0)
# Probe 309 (0.31825 0.29872 0)
# Probe 310 (0.29075 0.28864 0)
# Probe 311 (0.29864 0.49208 0)
# Probe 312 (0.28625 0.4137 0)
# Probe 313 (0.31359 0.27068 0)
# Probe 314 (0.27892 0.33391 0)
# Probe 315 (0.28702 0.25858 0)
# Probe 316 (0.46487 0.33367 0)
# Probe 317 (0.62572 0.45296 0)
# Probe 318 (0.50544 0.27295 0)
# Probe 319 (0.52355 0.26179 0)
# Probe 320 (0.34111 0.28091 0)
# Probe 321 (0.33704 0.25302 0)
# Probe 322 (0.29988 0.72521 0)
# Probe 323 (0.36314 0.2637 0)
# Probe 324 (0.41834 0.50997 0)
# Probe 325 (0.36164 0.44118 0)
# Probe 326 (0.35977 0.23549 0)
# Probe 327 (0.35454 0.391 0)
# Probe 328 (0.38536 0.24612 0)
# Probe 329 (0.36676 0.29014 0)
# Probe 330 (0.41378 0.48797 0)
# Probe 331 (0.66769 0.54091 0)
# Probe 332 (0.26308 0.71249 0)
# Probe 333 (0.38197 0.21815 0)
# Probe 334 (0.41076 0.23107 0)
# Probe 335 (0.27163 0.75152 0)
# Probe 336 (0.35453 0.20683 0)
# Probe 337 (0.43372 0.49379 0)
# Probe 338 (0.70543 0.51112 0)
# Probe 339 (0.49103 0.58016 0)
# Probe 340 (0.40456 0.20152 0)
# Probe 341 (0.42993 0.21172 0)
# Probe 342 (0.42991 0.47453 0)
# Probe 343 (0.83368 0.3291 0)
# Probe 344 (0.73226 0.45275 0)
# Probe 345 (0.23348 0.73961 0)
# Probe 346 (0.22514 0.69926 0)
# Probe 347 (0.42603 0.18428 0)
# Probe 348 (0.44956 0.19462 0)
# Probe 349 (0.40814 0.25778 0)
# Probe 350 (0.30942 0.76324 0)
# Probe 351 (0.28077 0.79061 0)
# Probe 352 (0.31964 0.80237 0)
# Probe 353 (0.44816 0.48034 0)
# Probe 354 (0.45259 0.49854 0)
# Probe 355 (0.46629 0.48513 0)
# Probe 356 (0.47054 0.50278 0)
# Probe 357 (0.80791 0.47056 0)
# Probe 358 (0.44788 0.16755 0)
# Probe 359 (0.47317 0.18173 0)
# Probe 360 (0.82764 0.44977 0)
# Probe 361 (0.67839 0.21536 0)
# Probe 362 (0.26151 0.27884 0)
# Probe 363 (0.25709 0.24596 0)
# Probe 364 (0.22965 0.26852 0)
# Probe 365 (0.22333 0.23434 0)
# Probe 366 (0.25297 0.21079 0)
# Probe 367 (0.21728 0.19811 0)
# Probe 368 (0.75185 0.32457 0)
# Probe 369 (0.62959 0.67526 0)
# Probe 370 (0.60866 0.69574 0)
# Probe 371 (0.63759 0.70422 0)
# Probe 372 (0.61515 0.72584 0)
# Probe 373 (0.64602 0.73536 0)
# Probe 374 (0.62202 0.75838 0)
# Probe 375 (0.65465 0.76809 0)
# Probe 376 (0.67888 0.74526 0)
# Probe 377 (0.6886 0.77841 0)
# Probe 378 (0.71426 0.75389 0)
# Probe 379 (0.62926 0.79215 0)
# Probe 380 (0.59544 0.78185 0)
# Probe 381 (0.7243 0.78879 0)
# Probe 382 (0.75106 0.76189 0)
# Probe 383 (0.73966 0.72938 0)
# Probe 384 (0.77748 0.73492 0)
# Probe 385 (0.79035 0.77011 0)
# Probe 386 (0.76096 0.69781 0)
# Probe 387 (0.60258 0.81753 0)
# Probe 388 (0.56727 0.80615 0)
# Probe 389 (0.72979 0.26977 0)
# Probe 390 (0.444 0.46231 0)
# Probe 391 (0.42696 0.4563 0)
# Probe 392 (0.19567 0.25725 0)
# Probe 393 (0.20359 0.29149 0)
# Probe 394 (0.8031 0.70696 0)
# Probe 395 (0.79262 0.67075 0)
# Probe 396 (0.39983 0.17291 0)
# Probe 397 (0.72472 0.14542 0)
# Probe 398 (0.75695 0.14736 0)
# Probe 399 (0.81095 0.27994 0)
# Probe 400 (0.45404 0.22215 0)
# Probe 401 (0.8372 0.47837 0)
# Probe 402 (0.48331 0.4906 0)
# Probe 403 (0.48752 0.50702 0)
# Probe 404 (0.65553 0.21414 0)
# Probe 405 (0.85868 0.45457 0)
# Probe 406 (0.84615 0.35761 0)
# Probe 407 (0.1942 0.72701 0)
# Probe 408 (0.20289 0.76823 0)
# Probe 409 (0.18628 0.68628 0)
# Probe 410 (0.30414 0.52321 0)
# Probe 411 (0.27456 0.51126 0)
# Probe 412 (0.49933 0.49515 0)
# Probe 413 (0.50377 0.5112 0)
# Probe 414 (0.51521 0.49964 0)
# Probe 415 (0.51959 0.51535 0)
# Probe 416 (0.53305 0.50281 0)
# Probe 417 (0.53552 0.51932 0)
# Probe 418 (0.5478 0.50879 0)
# Probe 419 (0.5508 0.52363 0)
# Probe 420 (0.56136 0.51274 0)
# Probe 421 (0.56644 0.528 0)
# Probe 422 (0.57704 0.51415 0)
# Probe 423 (0.46991 0.15002 0)
# Probe 424 (0.44044 0.44502 0)
# Probe 425 (0.42497 0.4389 0)
# Probe 426 (0.43731 0.42834 0)
# Probe 427 (0.42253 0.42238 0)
# Probe 428 (0.69711 0.81511 0)
# Probe 429 (0.73465 0.8263 0)
# Probe 430 (0.58267 0.53263 0)
# Probe 431 (0.59441 0.52022 0)
# Probe 432 (0.49616 0.16181 0)
# Probe 433 (0.50025 0.18863 0)
# Probe 434 (0.52071 0.17277 0)
# Probe 435 (0.86587 0.33122 0)
# Probe 436 (0.66457 0.23274 0)
# Probe 437 (0.45785 0.51572 0)
# Probe 438 (0.24731 0.17384 0)
# Probe 439 (0.52442 0.19913 0)
# Probe 440 (0.54263 0.18387 0)
# Probe 441 (0.50524 0.21171 0)
# Probe 442 (0.53918 0.53552 0)
# Probe 443 (0.28981 0.83106 0)
# Probe 444 (0.21715 0.65896 0)
# Probe 445 (0.16867 0.64509 0)
# Probe 446 (0.20819 0.61889 0)
# Probe 447 (0.16963 0.60481 0)
# Probe 448 (0.57033 0.54529 0)
# Probe 449 (0.83043 0.67973 0)
# Probe 450 (0.82009 0.64352 0)
# Probe 451 (0.83747 0.72083 0)
# Probe 452 (0.28102 0.5446 0)
# Probe 453 (0.24965 0.53372 0)
# Probe 454 (0.24358 0.49867 0)
# Probe 455 (0.21717 0.52223 0)
# Probe 456 (0.21089 0.48675 0)
# Probe 457 (0.1828 0.51088 0)
# Probe 458 (0.1767 0.47456 0)
# Probe 459 (0.20518 0.45078 0)
# Probe 460 (0.17084 0.43782 0)
# Probe 461 (0.19977 0.41463 0)
# Probe 462 (0.16518 0.40124 0)
# Probe 463 (0.16749 0.28064 0)
# Probe 464 (0.15988 0.24383 0)
# Probe 465 (0.43463 0.41244 0)
# Probe 466 (0.41927 0.40655 0)
# Probe 467 (0.4314 0.39612 0)
# Probe 468 (0.41682 0.39072 0)
# Probe 469 (0.43127 0.38076 0)
# Probe 470 (0.41447 0.37507 0)
# Probe 471 (0.42627 0.36497 0)
# Probe 472 (0.41061 0.35922 0)
# Probe 473 (0.42233 0.34925 0)
# Probe 474 (0.40746 0.34258 0)
# Probe 475 (0.42243 0.33237 0)
# Probe 476 (0.32982 0.84302 0)
# Probe 477 (0.36099 0.81422 0)
# Probe 478 (0.45616 0.45076 0)
# Probe 479 (0.59019 0.50428 0)
# Probe 480 (0.6066 0.5081 0)
# Probe 481 (0.61119 0.52474 0)
# Probe 482 (0.62265 0.51199 0)
# Probe 483 (0.56043 0.77026 0)
# Probe 484 (0.53199 0.79433 0)
# Probe 485 (0.52459 0.75831 0)
# Probe 486 (0.49695 0.78244 0)
# Probe 487 (0.50388 0.81837 0)
# Probe 488 (0.48988 0.74677 0)
# Probe 489 (0.21054 0.15972 0)
# Probe 490 (0.57505 0.84365 0)
# Probe 491 (0.46228 0.77069 0)
# Probe 492 (0.45531 0.73515 0)
# Probe 493 (0.50637 0.52771 0)
# Probe 494 (0.14809 0.6743 0)
# Probe 495 (0.44238 0.13783 0)
# Probe 496 (0.39392 0.3512 0)
# Probe 497 (0.4048 0.39965 0)
# Probe 498 (0.49538 0.47913 0)
# Probe 499 (0.61069 0.85562 0)
# Probe 500 (0.54522 0.20669 0)
# Probe 501 (0.56259 0.19345 0)
# Probe 502 (0.36102 0.56406 0)
# Probe 503 (0.56435 0.21355 0)
# Probe 504 (0.58506 0.2031 0)
# Probe 505 (0.68205 0.08846 0)
# Probe 506 (0.5197 0.14686 0)
# Probe 507 (0.64501 0.23188 0)
# Probe 508 (0.63575 0.21485 0)
# Probe 509 (0.37029 0.85462 0)
# Probe 510 (0.75757 0.66018 0)
# Probe 511 (0.61812 0.4961 0)
# Probe 512 (0.63362 0.49961 0)
# Probe 513 (0.14689 0.49857 0)
# Probe 514 (0.40608 0.66107 0)
# Probe 515 (0.85588 0.65234 0)
# Probe 516 (0.84596 0.61601 0)
# Probe 517 (0.65413 0.248 0)
# Probe 518 (0.67186 0.24976 0)
# Probe 519 (0.16183 0.75519 0)
# Probe 520 (0.17093 0.79866 0)
# Probe 521 (0.46733 0.11804 0)
# Probe 522 (0.5577 0.49993 0)
# Probe 523 (0.13823 0.42564 0)
# Probe 524 (0.81082 0.60775 0)
# Probe 525 (0.83595 0.58162 0)
# Probe 526 (0.87214 0.58916 0)
# Probe 527 (0.86835 0.48718 0)
# Probe 528 (0.89196 0.46089 0)
# Probe 529 (0.58762 0.55045 0)
# Probe 530 (0.57336 0.56482 0)
# Probe 531 (0.40777 0.44785 0)
# Probe 532 (0.70633 0.85236 0)
# Probe 533 (0.74602 0.86396 0)
# Probe 534 (0.87983 0.4272 0)
# Probe 535 (0.4057 0.32468 0)
# Probe 536 (0.41842 0.31375 0)
# Probe 537 (0.43524 0.31896 0)
# Probe 538 (0.43214 0.30208 0)
# Probe 539 (0.58062 0.18165 0)
# Probe 540 (0.42707 0.75959 0)
# Probe 541 (0.19418 0.37859 0)
# Probe 542 (0.16053 0.36637 0)
# Probe 543 (0.6289 0.4844 0)
# Probe 544 (0.64458 0.4872 0)
# Probe 545 (0.64972 0.50313 0)
# Probe 546 (0.66026 0.49019 0)
# Probe 547 (0.65514 0.47476 0)
# Probe 548 (0.67063 0.47742 0)
# Probe 549 (0.66521 0.4624 0)
# Probe 550 (0.65705 0.42456 0)
# Probe 551 (0.68111 0.46515 0)
# Probe 552 (0.67552 0.4504 0)
# Probe 553 (0.69199 0.45257 0)
# Probe 554 (0.68583 0.43809 0)
# Probe 555 (0.34298 0.33551 0)
# Probe 556 (0.69901 0.46848 0)
# Probe 557 (0.4327 0.79748 0)
# Probe 558 (0.24118 0.13497 0)
# Probe 559 (0.27828 0.15001 0)
# Probe 560 (0.52668 0.48862 0)
# Probe 561 (0.62677 0.23135 0)
# Probe 562 (0.5832 0.88305 0)
# Probe 563 (0.58264 0.22133 0)
# Probe 564 (0.62785 0.52898 0)
# Probe 565 (0.70312 0.43945 0)
# Probe 566 (0.69634 0.42514 0)
# Probe 567 (0.71261 0.42734 0)
# Probe 568 (0.70654 0.41223 0)
# Probe 569 (0.72613 0.41496 0)
# Probe 570 (0.71692 0.39915 0)
# Probe 571 (0.7006 0.39752 0)
# Probe 572 (0.71026 0.38437 0)
# Probe 573 (0.72594 0.38605 0)
# Probe 574 (0.71938 0.37077 0)
# Probe 575 (0.61726 0.21635 0)
# Probe 576 (0.4495 0.41872 0)
# Probe 577 (0.41494 0.29602 0)
# Probe 578 (0.70321 0.36891 0)
# Probe 579 (0.71321 0.35582 0)
# Probe 580 (0.72909 0.35625 0)
# Probe 581 (0.74224 0.11717 0)
# Probe 582 (0.77759 0.11925 0)
# Probe 583 (0.44065 0.36884 0)
# Probe 584 (0.8811 0.36283 0)
# Probe 585 (0.8998 0.33435 0)
# Probe 586 (0.88611 0.30168 0)
# Probe 587 (0.29891 0.87267 0)
# Probe 588 (0.25853 0.8608 0)
# Probe 589 (0.66618 0.50516 0)
# Probe 590 (0.26674 0.90526 0)
# Probe 591 (0.13039 0.26956 0)
# Probe 592 (0.12191 0.22985 0)
# Probe 593 (0.60846 0.2319 0)
# Probe 594 (0.72198 0.34064 0)
# Probe 595 (0.704 0.3417 0)
# Probe 596 (0.71361 0.3259 0)
# Probe 597 (0.6972 0.3249 0)
# Probe 598 (0.70486 0.31089 0)
# Probe 599 (0.84393 0.51544 0)
# Probe 600 (0.88534 0.52467 0)
# Probe 601 (0.22708 0.39135 0)
# Probe 602 (0.4292 0.28481 0)
# Probe 603 (0.44579 0.29133 0)
# Probe 604 (0.44377 0.27461 0)
# Probe 605 (0.45897 0.28149 0)
# Probe 606 (0.45744 0.26493 0)
# Probe 607 (0.54456 0.86948 0)
# Probe 608 (0.25665 0.5672 0)
# Probe 609 (0.55108 0.22781 0)
# Probe 610 (0.22192 0.35757 0)
# Probe 611 (0.58481 0.71625 0)
# Probe 612 (0.77508 0.83609 0)
# Probe 613 (0.78646 0.87757 0)
# Probe 614 (0.81794 0.84725 0)
# Probe 615 (0.75106 0.91013 0)
# Probe 616 (0.66235 0.2635 0)
# Probe 617 (0.67908 0.26571 0)
# Probe 618 (0.68975 0.25149 0)
# Probe 619 (0.22672 0.89213 0)
# Probe 620 (0.51684 0.72431 0)
# Probe 621 (0.1542 0.53588 0)
# Probe 622 (0.11636 0.52416 0)
# Probe 623 (0.12528 0.56118 0)
# Probe 624 (0.20298 0.11992 0)
# Probe 625 (0.17217 0.14497 0)
# Probe 626 (0.917 0.42927 0)
# Probe 627 (0.65633 0.6819 0)
# Probe 628 (0.79288 0.15159 0)
# Probe 629 (0.81483 0.12172 0)
# Probe 630 (0.83123 0.15733 0)
# Probe 631 (0.85336 0.12576 0)
# Probe 632 (0.86825 0.16341 0)
# Probe 633 (0.84657 0.19424 0)
# Probe 634 (0.12838 0.78455 0)
# Probe 635 (0.1376 0.82945 0)
# Probe 636 (0.12487 0.74043 0)
# Probe 637 (0.47333 0.27332 0)
# Probe 638 (0.47093 0.25555 0)
# Probe 639 (0.59337 0.56945 0)
# Probe 640 (0.57754 0.5859 0)
# Probe 641 (0.62264 0.89543 0)
# Probe 642 (0.88468 0.19967 0)
# Probe 643 (0.85959 0.23055 0)
# Probe 644 (0.08316 0.54901 0)
# Probe 645 (0.61634 0.54243 0)
# Probe 646 (0.42172 0.72426 0)
# Probe 647 (0.24748 0.63243 0)
# Probe 648 (0.48474 0.26221 0)
# Probe 649 (0.48387 0.24626 0)
# Probe 650 (0.49869 0.25311 0)
# Probe 651 (0.59737 0.1882 0)
# Probe 652 (0.92199 0.3079 0)
# Probe 653 (0.55609 0.55805 0)
# Probe 654 (0.63328 0.54789 0)
# Probe 655 (0.44941 0.69726 0)
# Probe 656 (0.90838 0.27157 0)
# Probe 657 (0.69626 0.26836 0)
# Probe 658 (0.68429 0.28332 0)
# Probe 659 (0.6871 0.31014 0)
# Probe 660 (0.44108 0.25671 0)
# Probe 661 (0.43669 0.10584 0)
# Probe 662 (0.46648 0.08432 0)
# Probe 663 (0.49266 0.09937 0)
# Probe 664 (0.65015 0.46082 0)
# Probe 665 (0.28795 0.57697 0)
# Probe 666 (0.59555 0.92378 0)
# Probe 667 (0.61292 0.48022 0)
# Probe 668 (0.70311 0.28453 0)
# Probe 669 (0.68044 0.42275 0)
# Probe 670 (0.72386 0.30679 0)
# Probe 671 (0.10834 0.48059 0)
# Probe 672 (0.41257 0.12681 0)
# Probe 673 (0.2728 0.11082 0)
# Probe 674 (0.30877 0.12487 0)
# Probe 675 (0.31347 0.16346 0)
# Probe 676 (0.34263 0.14048 0)
# Probe 677 (0.33958 0.10317 0)
# Probe 678 (0.6474 0.26136 0)
# Probe 679 (0.1396 0.30512 0)
# Probe 680 (0.19852 0.58109 0)
# Probe 681 (0.404 0.09362 0)
# Probe 682 (0.80337 0.57457 0)
# Probe 683 (0.77832 0.59855 0)
# Probe 684 (0.79499 0.51553 0)
# Probe 685 (0.39197 0.74915 0)
# Probe 686 (0.46099 0.29774 0)
# Probe 687 (0.83037 0.88825 0)
# Probe 688 (0.86484 0.85698 0)
# Probe 689 (0.85325 0.81278 0)
# Probe 690 (0.82212 0.22518 0)
# Probe 691 (0.68313 0.32382 0)
# Probe 692 (0.87426 0.90245 0)
# Probe 693 (0.70864 0.25516 0)
# Probe 694 (0.70331 0.23724 0)
# Probe 695 (0.59838 0.5901 0)
# Probe 696 (0.48457 0.20568 0)
# Probe 697 (0.62308 0.47122 0)
# Probe 698 (0.65545 0.52008 0)
# Probe 699 (0.21353 0.81122 0)
# Probe 700 (0.1622 0.10554 0)
# Probe 701 (0.12937 0.13081 0)
# Probe 702 (0.12289 0.0904 0)
# Probe 703 (0.52476 0.22038 0)
# Probe 704 (0.9288 0.46883 0)
# Probe 705 (0.62532 0.19935 0)
# Probe 706 (0.09026 0.81423 0)
# Probe 707 (0.09763 0.29601 0)
# Probe 708 (0.11162 0.32987 0)
# Probe 709 (0.50886 0.23141 0)
# Probe 710 (0.5245 0.23787 0)
# Probe 711 (0.56567 0.23193 0)
# Probe 712 (0.23683 0.93105 0)
# Probe 713 (0.47139 0.28809 0)
# Probe 714 (0.15329 0.20425 0)
# Probe 715 (0.11226 0.19279 0)
# Probe 716 (0.91148 0.16553 0)
# Probe 717 (0.913 0.86526 0)
# Probe 718 (0.66813 0.84161 0)
# Probe 719 (0.67423 0.88269 0)
# Probe 720 (0.10539 0.86286 0)
# Probe 721 (0.1464 0.87405 0)
# Probe 722 (0.38794 0.27504 0)
# Probe 723 (0.06805 0.32755 0)
# Probe 724 (0.25374 0.37068 0)
# Probe 725 (0.8404 0.08559 0)
# Probe 726 (0.08115 0.21664 0)
# Probe 727 (0.58051 0.23654 0)
# Probe 728 (0.63594 0.24777 0)
# Probe 729 (0.61936 0.24457 0)
# Probe 730 (0.44765 0.30792 0)
# Probe 731 (0.44954 0.32295 0)
# Probe 732 (0.43913 0.33285 0)
# Probe 733 (0.09327 0.59497 0)
# Probe 734 (0.55425 0.07909 0)
# Probe 735 (0.5467 0.11565 0)
# Probe 736 (0.56739 0.14303 0)
# Probe 737 (0.08558 0.11306 0)
# Probe 738 (0.63778 0.47122 0)
# Probe 739 (0.48947 0.22668 0)
# Probe 740 (0.76049 0.34818 0)
# Probe 741 (0.45461 0.43382 0)
# Probe 742 (0.46797 0.44089 0)
# Probe 743 (0.47036 0.45399 0)
# Probe 744 (0.48042 0.446 0)
# Probe 745 (0.48345 0.45772 0)
# Probe 746 (0.46211 0.42163 0)
# Probe 747 (0.46016 0.41065 0)
# Probe 748 (0.47861 0.43406 0)
# Probe 749 (0.44827 0.40306 0)
# Probe 750 (0.44469 0.38921 0)
# Probe 751 (0.60329 0.49189 0)
# Probe 752 (0.58714 0.48685 0)
# Probe 753 (0.57704 0.49712 0)
# Probe 754 (0.57576 0.48533 0)
# Probe 755 (0.59831 0.47825 0)
# Probe 756 (0.5107 0.48416 0)
# Probe 757 (0.50713 0.47048 0)
# Probe 758 (0.52249 0.47443 0)
# Probe 759 (0.53644 0.47954 0)
# Probe 760 (0.5408 0.48996 0)
# Probe 761 (0.54848 0.48044 0)
# Probe 762 (0.11392 0.91029 0)
# Probe 763 (0.48031 0.47472 0)
# Probe 764 (0.57094 0.24384 0)
# Probe 765 (0.85793 0.39085 0)
# Probe 766 (0.74922 0.43769 0)
# Probe 767 (0.82732 0.54944 0)
# Probe 768 (0.6886 0.52741 0)
# Probe 769 (0.3569 0.41605 0)
# Probe 770 (0.37779 0.42513 0)
# Probe 771 (0.38353 0.44679 0)
# Probe 772 (0.37413 0.40178 0)
# Probe 773 (0.37464 0.37932 0)
# Probe 774 (0.35662 0.36769 0)
# Probe 775 (0.65963 0.44818 0)
# Probe 776 (0.67152 0.43661 0)
# Probe 777 (0.60098 0.14325 0)
# Probe 778 (0.73943 0.29081 0)
# Probe 779 (0.38684 0.29852 0)
# Probe 780 (0.3716 0.31342 0)
# Probe 781 (0.77092 0.56523 0)
# Probe 782 (0.69136 0.40989 0)
# Probe 783 (0.68523 0.39486 0)
# Probe 784 (0.69519 0.38348 0)
# Probe 785 (0.5885 0.47473 0)
# Probe 786 (0.428 0.53417 0)
# Probe 787 (0.43292 0.56156 0)
# Probe 788 (0.45049 0.54528 0)
# Probe 789 (0.45698 0.56764 0)
# Probe 790 (0.4739 0.549 0)
# Probe 791 (0.78411 0.63465 0)
# Probe 792 (0.75334 0.62343 0)
# Probe 793 (0.72653 0.64519 0)
# Probe 794 (0.72841 0.67761 0)
# Probe 795 (0.70158 0.66574 0)
# Probe 796 (0.70084 0.69566 0)
# Probe 797 (0.51213 0.59012 0)
# Probe 798 (0.50861 0.56664 0)
# Probe 799 (0.52991 0.57599 0)
# Probe 800 (0.52628 0.55327 0)
# Probe 801 (0.39317 0.48055 0)
# Probe 802 (0.37082 0.46664 0)
# Probe 803 (0.70766 0.11584 0)
# Probe 804 (0.72227 0.08542 0)
# Probe 805 (0.70127 0.05487 0)
# Probe 806 (0.58274 0.60735 0)
# Probe 807 (0.89937 0.39634 0)
# Probe 808 (0.59944 0.17049 0)
# Probe 809 (0.55392 0.57893 0)
# Probe 810 (0.72308 0.4944 0)
# Probe 811 (0.40192 0.8259 0)
# Probe 812 (0.40783 0.86917 0)
# Probe 813 (0.37904 0.89726 0)
# Probe 814 (0.43773 0.35586 0)
# Probe 815 (0.68799 0.33817 0)
# Probe 816 (0.69338 0.3498 0)
# Probe 817 (0.48234 0.71276 0)
# Probe 818 (0.50876 0.69099 0)
# Probe 819 (0.55284 0.46875 0)
# Probe 820 (0.53372 0.46107 0)
# Probe 821 (0.34618 0.31039 0)
# Probe 822 (0.56468 0.46825 0)
# Probe 823 (0.50508 0.44715 0)
# Probe 824 (0.48998 0.43234 0)
# Probe 825 (0.28346 0.18717 0)
# Probe 826 (0.46761 0.39572 0)
# Probe 827 (0.46257 0.37585 0)
# Probe 828 (0.59586 0.46646 0)
# Probe 829 (0.61726 0.45992 0)
# Probe 830 (0.46119 0.36547 0)
# Probe 831 (0.47086 0.40614 0)
# Probe 832 (0.31858 0.20166 0)
# Probe 833 (0.46819 0.32342 0)
# Probe 834 (0.47702 0.30468 0)
# Probe 835 (0.63456 0.44705 0)
# Probe 836 (0.94798 0.27141 0)
# Probe 837 (0.71893 0.47068 0)
# Probe 838 (0.51428 0.45296 0)
# Probe 839 (0.23234 0.42687 0)
# Probe 840 (0.23781 0.46294 0)
# Probe 841 (0.26562 0.44079 0)
# Probe 842 (0.26931 0.47845 0)
# Probe 843 (0.04226 0.42335 0)
# Probe 844 (0.08305 0.39997 0)
# Probe 845 (0.46222 0.34368 0)
# Probe 846 (0.45245 0.34882 0)
# Probe 847 (0.5551 0.73205 0)
# Probe 848 (0.65001 0.43251 0)
# Probe 849 (0.66296 0.41586 0)
# Probe 850 (0.67262 0.39716 0)
# Probe 851 (0.67899 0.36577 0)
# Probe 852 (0.67513 0.38633 0)
# Probe 853 (0.22865 0.04699 0)
# Probe 854 (0.63441 0.27317 0)
# Probe 855 (0.4628 0.46744 0)
# Probe 856 (0.28498 0.22446 0)
# Probe 857 (0.5142 0.26689 0)
# Probe 858 (0.51342 0.25633 0)
# Probe 859 (0.82273 0.0441 0)
# Probe 860 (0.48145 0.29462 0)
# Probe 861 (0.49722 0.2797 0)
# Probe 862 (0.66383 0.30421 0)
# Probe 863 (0.67467 0.30543 0)
# Probe 864 (0.67011 0.29257 0)
# Probe 865 (0.66883 0.2781 0)
# Probe 866 (0.54371 0.25457 0)
# Probe 867 (0.54694 0.24319 0)
# Probe 868 (0.88714 0.09537 0)
# Probe 869 (0.92335 0.04943 0)
# Probe 870 (0.67836 0.35497 0)
# Probe 871 (0.67569 0.33351 0)
# Probe 872 (0.65727 0.2953 0)
# Probe 873 (0.64276 0.27998 0)
# Probe 874 (0.47493 0.95789 0)
# Probe 875 (0.49786 0.91888 0)
# Probe 876 (0.45344 0.91727 0)
# Probe 877 (0.47644 0.87731 0)
# Probe 878 (0.37287 0.04242 0)
# Probe 879 (0.32389 0.03863 0)
# Probe 880 (0.37792 0.951 0)
# Probe 881 (0.04166 0.5268 0)
# Probe 882 (0.08244 0.4455 0)
# Probe 883 (0.47677 0.04166 0)
# Probe 884 (0.47124 0.23678 0)
# Probe 885 (0.25518 0.67413 0)
# Probe 886 (0.61622 0.26233 0)
# Probe 887 (0.59645 0.25465 0)
# Probe 888 (0.60544 0.24635 0)
# Probe 889 (0.59193 0.24364 0)
# Probe 890 (0.4354 0.23461 0)
# Probe 891 (0.63664 0.45749 0)
# Probe 892 (0.45347 0.33616 0)
# Probe 893 (0.48685 0.27588 0)
# Probe 894 (0.69749 0.63204 0)
# Probe 895 (0.95854 0.57514 0)
# Probe 896 (0.92155 0.54966 0)
# Probe 897 (0.91365 0.59543 0)
# Probe 898 (0.9567 0.62186 0)
# Probe 899 (0.91768 0.64359 0)
# Probe 900 (0.91156 0.68669 0)
# Probe 901 (0.95292 0.72518 0)
# Probe 902 (0.90372 0.72999 0)
# Probe 903 (0.93027 0.76072 0)
# Probe 904 (0.89143 0.77554 0)
# Probe 905 (0.95826 0.17858 0)
# Probe 906 (0.70317 0.48797 0)
# Probe 907 (0.44363 0.84288 0)
# Probe 908 (0.04367 0.57418 0)
# Probe 909 (0.08877 0.64238 0)
# Probe 910 (0.04757 0.67029 0)
# Probe 911 (0.08869 0.68359 0)
# Probe 912 (0.05112 0.72429 0)
# Probe 913 (0.1291 0.6208 0)
# Probe 914 (0.53331 0.25764 0)
# Probe 915 (0.75863 0.39222 0)
# Probe 916 (0.75218 0.37166 0)
# Probe 917 (0.74393 0.40789 0)
# Probe 918 (0.59889 0.21782 0)
# Probe 919 (0.68807 0.37297 0)
# Probe 920 (0.72709 0.95653 0)
# Probe 921 (0.65369 0.27517 0)
# Probe 922 (0.77475 0.95762 0)
# Probe 923 (0.62441 0.96033 0)
# Probe 924 (0.83783 0.25778 0)
# Probe 925 (0.18734 0.34602 0)
# Probe 926 (0.54552 0.91513 0)
# Probe 927 (0.35409 0.77 0)
# Probe 928 (0.74062 0.34123 0)
# Probe 929 (0.46069 0.31391 0)
# Probe 930 (0.69966 0.91933 0)
# Probe 931 (0.12857 0.95664 0)
# Probe 932 (0.39651 0.43008 0)
# Probe 933 (0.49349 0.4506 0)
# Probe 934 (0.65155 0.5616 0)
# Probe 935 (0.25773 0.40474 0)
# Probe 936 (0.4118 0.27718 0)
# Probe 937 (0.39479 0.78606 0)
# Probe 938 (0.04329 0.82502 0)
# Probe 939 (0.27352 0.95461 0)
# Probe 940 (0.87645 0.95091 0)
# Probe 941 (0.56079 0.6043 0)
# Probe 942 (0.30414 0.0808 0)
# Probe 943 (0.95742 0.87905 0)
# Probe 944 (0.90667 0.8211 0)
# Probe 945 (0.84126 0.76634 0)
# Probe 946 (0.49407 0.46515 0)
# Probe 947 (0.4567 0.39304 0)
# Probe 948 (0.84568 0.42505 0)
# Probe 949 (0.95966 0.41987 0)
# Probe 950 (0.23669 0.30253 0)
# Probe 951 (0.31043 0.55331 0)
# Probe 952 (0.31948 0.58743 0)
# Probe 953 (0.1804 0.84267 0)
# Probe 954 (0.45258 0.37185 0)
# Probe 955 (0.45095 0.36092 0)
# Probe 956 (0.95977 0.33033 0)
# Probe 957 (0.37673 0.12198 0)
# Probe 958 (0.85942 0.5545 0)
# Probe 959 (0.73007 0.43281 0)
# Probe 960 (0.74758 0.5921 0)
# Probe 961 (0.68588 0.50295 0)
# Probe 962 (0.66584 0.04438 0)
# Probe 963 (0.85158 0.30348 0)
# Probe 964 (0.23457 0.09472 0)
# Probe 965 (0.67201 0.71008 0)
# Probe 966 (0.81073 0.18719 0)
# Probe 967 (0.54319 0.15957 0)
# Probe 968 (0.33956 0.8844 0)
# Probe 969 (0.30919 0.91661 0)
# Probe 970 (0.26547 0.60047 0)
# Probe 971 (0.24245 0.77986 0)