# Probe 0 (0 0 0)
# Probe 1 (1 0 0)
# Probe 2 (1 1 0)
# Probe 3 (0 1 0)
# Probe 4 (0.39 0.41 0)
# Probe 5 (0.29 0.31 0)
# Probe 6 (0.19 0.41 0)
# Probe 7 (0.29 0.51 0)
# Probe 8 (0.05 0 0)
# Probe 9 (0.1 0 0)
# Probe 10 (0.15 0 0)
# Probe 11 (0.2 0 0)
# Probe 12 (0.25 0 0)
# Probe 13 (0.3 0 0)
# Probe 14 (0.35 0 0)
# Probe 15 (0.4 0 0)
# Probe 16 (0.45 0 0)
# Probe 17 (0.5 0 0)
# Probe 18 (0.55 0 0)
# Probe 19 (0.6 0 0)
# Probe 20 (0.65 0 0)
# Probe 21 (0.7 0 0)
# Probe 22 (0.75 0 0)
# Probe 23 (0.8 0 0)
# Probe 24 (0.85 0 0)
# Probe 25 (0.9 0 0)
# Probe 26 (0.95 0 0)
# Probe 27 (1 0.05 0)
# Probe 28 (1 0.1 0)
# Probe 29 (1 0.15 0)
# Probe 30 (1 0.2 0)
# Probe 31 (1 0.25 0)
# Probe 32 (1 0.3 0)
# Probe 33 (1 0.35 0)
# Probe 34 (1 0.4 0)
# Probe 35 (1 0.45 0)
# Probe 36 (1 0.5 0)
# Probe 37 (1 0.55 0)
# Probe 38 (1 0.6 0)
# Probe 39 (1 0.65 0)
# Probe 40 (1 0.7 0)
# Probe 41 (1 0.75 0)
# Probe 42 (1 0.8 0)
# Probe 43 (1 0.85 0)
# Probe 44 (1 0.9 0)
# Probe 45 (1 0.95 0)
# Probe 46 (0.95 1 0)
# Probe 47 (0.9 1 0)
# Probe 48 (0.85 1 0)
# Probe 49 (0.8 1 0)
# Probe 50 (0.75 1 0)
# Probe 51 (0.7 1 0)
# Probe 52 (0.65 1 0)
# Probe 53 (0.6 1 0)
# Probe 54 (0.55 1 0)
# Probe 55 (0.5 1 0)
# Probe 56 (0.45 1 0)
# Probe 57 (0.4 1 0)
# Probe 58 (0.35 1 0)
# Probe 59 (0.3 1 0)
# Probe 60 (0.25 1 0)
# Probe 61 (0.2 1 0)
# Probe 62 (0.15 1 0)
# Probe 63 (0.1 1 0)
# Probe 64 (0.05 1 0)
# Probe 65 (0 0.95 0)
# Probe 66 (0 0.9 0)
# Probe 67 (0 0.85 0)
# Probe 68 (0 0.8 0)
# Probe 69 (0 0.75 0)
# Probe 70 (0 0.7 0)
# Probe 71 (0 0.65 0)
# Probe 72 (0 0.6 0)
# Probe 73 (0 0.55 0)
# Probe 74 (0 0.5 0)
# Probe 75 (0 0.45 0)
# Probe 76 (0 0.4 0)
# Probe 77 (0 0.35 0)
# Probe 78 (0 0.3 0)
# Probe 79 (0 0.25 0)
# Probe 80 (0 0.2 0)
# Probe 81 (0 0.15 0)
# Probe 82 (0 0.1 0)
# Probe 83 (0 0.05 0)
# Probe 84 (0.38952 0.4002 0)
# Probe 85 (0.38808 0.39049 0)
# Probe 86 (0.38569 0.38097 0)
# Probe 87 (0.38239 0.37173 0)
# Probe 88 (0.37819 0.36286 0)
# Probe 89 (0.37315 0.35444 0)
# Probe 90 (0.3673 0.34656 0)
# Probe 91 (0.36071 0.33929 0)
# Probe 92 (0.35344 0.3327 0)
# Probe 93 (0.34556 0.32685 0)
# Probe 94 (0.33714 0.32181 0)
# Probe 95 (0.32827 0.31761 0)
# Probe 96 (0.31903 0.31431 0)
# Probe 97 (0.30951 0.31192 0)
# Probe 98 (0.2998 0.31048 0)
# Probe 99 (0.2802 0.31048 0)
# Probe 100 (0.27049 0.31192 0)
# Probe 101 (0.26097 0.31431 0)
# Probe 102 (0.25173 0.31761 0)
# Probe 103 (0.24286 0.32181 0)
# Probe 104 (0.23444 0.32685 0)
# Probe 105 (0.22656 0.3327 0)
# Probe 106 (0.21929 0.33929 0)
# Probe 107 (0.2127 0.34656 0)
# Probe 108 (0.20685 0.35444 0)
# Probe 109 (0.20181 0.36286 0)
# Probe 110 (0.19761 0.37173 0)
# Probe 111 (0.19431 0.38097 0)
# Probe 112 (0.19192 0.39049 0)
# Probe 113 (0.19048 0.4002 0)
# Probe 114 (0.19048 0.4198 0)
# Probe 115 (0.19192 0.42951 0)
# Probe 116 (0.19431 0.43903 0)
# Probe 117 (0.19761 0.44827 0)
# Probe 118 (0.20181 0.45714 0)
# Probe 119 (0.20685 0.46556 0)
# Probe 120 (0.2127 0.47344 0)
# Probe 121 (0.21929 0.48071 0)
# Probe 122 (0.22656 0.4873 0)
# Probe 123 (0.23444 0.49315 0)
# Probe 124 (0.24286 0.49819 0)
# Probe 125 (0.25173 0.50239 0)
# Probe 126 (0.26097 0.50569 0)
# Probe 127 (0.27049 0.50808 0)
# Probe 128 (0.2802 0.50952 0)
# Probe 129 (0.2998 0.50952 0)
# Probe 130 (0.30951 0.50808 0)
# Probe 131 (0.31903 0.50569 0)
# Probe 132 (0.32827 0.50239 0)
# Probe 133 (0.33714 0.49819 0)
# Probe 134 (0.34556 0.49315 0)
# Probe 135 (0.35344 0.4873 0)
# Probe 136 (0.36071 0.48071 0)
# Probe 137 (0.3673 0.47344 0)
# Probe 138 (0.37315 0.46556 0)
# Probe 139 (0.37819 0.45714 0)
# Probe 140 (0.38239 0.44827 0)
# Probe 141 (0.38569 0.43903 0)
# Probe 142 (0.38808 0.42951 0)
# Probe 143 (0.38952 0.4198 0)
# Probe 144 (0.9594 0.6242 0)
# Probe 145 (0.62369 0.95844 0)
# Probe 146 (0.95414 0.32956 0)
# Probe 147 (0.47774 0.95488 0)
# Probe 148 (0.61711 0.03951 0)
# Probe 149 (0.32615 0.95785 0)
# Probe 150 (0.03659 0.73005 0)
# Probe 151 (0.96022 0.47814 0)
# Probe 152 (0.48193 0.04003 0)
# Probe 153 (0.17586 0.04827 0)
# Probe 154 (0.19203 0.36366 0)
# Probe 155 (0.95508 0.76495 0)
# Probe 156 (0.19203 0.45634 0)
# Probe 157 (0.77177 0.04064 0)
# Probe 158 (0.32726 0.04418 0)
# Probe 159 (0.18186 0.39461 0)
# Probe 160 (0.18268 0.42575 0)
# Probe 161 (0.04521 0.22889 0)
# Probe 162 (0.77106 0.95012 0)
# Probe 163 (0.04235 0.56991 0)
# Probe 164 (0.20321 0.34562 0)
# Probe 165 (0.17549 0.95533 0)
# Probe 166 (0.20295 0.47456 0)
# Probe 167 (0.9643 0.17935 0)
# Probe 168 (0.0392 0.82253 0)
# Probe 169 (0.03801 0.32279 0)
# Probe 170 (0.03852 0.47483 0)
# Probe 171 (0.875 0.95939 0)
# Probe 172 (0.04031 0.12698 0)
# Probe 173 (0.8734 0.0489 0)
# Probe 174 (0.95928 0.86845 0)
# Probe 175 (0.03813 0.92441 0)
# Probe 176 (0.07596 0.04635 0)
# Probe 177 (0.95512 0.07736 0)
# Probe 178 (0.04142 0.52175 0)
# Probe 179 (0.07761 0.54826 0)
# Probe 180 (0.08093 0.5856 0)
# Probe 181 (0.1101 0.56497 0)
# Probe 182 (0.22562 0.49703 0)
# Probe 183 (0.11319 0.59791 0)
# Probe 184 (0.13811 0.57937 0)
# Probe 185 (0.1415 0.60952 0)
# Probe 186 (0.16411 0.59256 0)
# Probe 187 (0.16809 0.62073 0)
# Probe 188 (0.2525 0.51228 0)
# Probe 189 (0.1909 0.60135 0)
# Probe 190 (0.19388 0.63031 0)
# Probe 191 (0.21507 0.61571 0)
# Probe 192 (0.21877 0.64104 0)
# Probe 193 (0.23939 0.62633 0)
# Probe 194 (0.24276 0.65245 0)
# Probe 195 (0.26342 0.63708 0)
# Probe 196 (0.26676 0.66305 0)
# Probe 197 (0.28765 0.6477 0)
# Probe 198 (0.31526 0.51566 0)
# Probe 199 (0.29082 0.67333 0)
# Probe 200 (0.31183 0.65799 0)
# Probe 201 (0.31476 0.68408 0)
# Probe 202 (0.33594 0.66813 0)
# Probe 203 (0.33926 0.69499 0)
# Probe 204 (0.36062 0.67867 0)
# Probe 205 (0.35743 0.65237 0)
# Probe 206 (0.38246 0.66198 0)
# Probe 207 (0.34549 0.50254 0)
# Probe 208 (0.38585 0.68951 0)
# Probe 209 (0.40771 0.67238 0)
# Probe 210 (0.40397 0.64506 0)
# Probe 211 (0.42888 0.65485 0)
# Probe 212 (0.42471 0.62845 0)
# Probe 213 (0.44983 0.63793 0)
# Probe 214 (0.4456 0.61178 0)
# Probe 215 (0.47054 0.62111 0)
# Probe 216 (0.46571 0.59507 0)
# Probe 217 (0.49097 0.6044 0)
# Probe 218 (0.48611 0.57849 0)
# Probe 219 (0.5114 0.5878 0)
# Probe 220 (0.50772 0.56232 0)
# Probe 221 (0.53203 0.57115 0)
# Probe 222 (0.52844 0.54525 0)
# Probe 223 (0.55423 0.55466 0)
# Probe 224 (0.54925 0.52723 0)
# Probe 225 (0.561 0.58291 0)
# Probe 226 (0.57667 0.53693 0)
# Probe 227 (0.57193 0.5082 0)
# Probe 228 (0.39212 0.44851 0)
# Probe 229 (0.47522 0.64779 0)
# Probe 230 (0.59948 0.51842 0)
# Probe 231 (0.59485 0.48808 0)
# Probe 232 (0.37665 0.47487 0)
# Probe 233 (0.62281 0.49944 0)
# Probe 234 (0.61728 0.46815 0)
# Probe 235 (0.58843 0.45708 0)
# Probe 236 (0.39818 0.41554 0)
# Probe 237 (0.61182 0.43678 0)
# Probe 238 (0.58355 0.42558 0)
# Probe 239 (0.60693 0.40532 0)
# Probe 240 (0.57703 0.39419 0)
# Probe 241 (0.62823 0.53034 0)
# Probe 242 (0.60167 0.37375 0)
# Probe 243 (0.57131 0.36273 0)
# Probe 244 (0.39519 0.384 0)
# Probe 245 (0.63763 0.41892 0)
# Probe 246 (0.59652 0.34154 0)
# Probe 247 (0.56537 0.33048 0)
# Probe 248 (0.24482 0.67813 0)
# Probe 249 (0.317 0.71166 0)
# Probe 250 (0.65222 0.50947 0)
# Probe 251 (0.65825 0.54317 0)
# Probe 252 (0.41242 0.70075 0)
# Probe 253 (0.28447 0.51823 0)
# Probe 254 (0.52502 0.52086 0)
# Probe 255 (0.59053 0.30806 0)
# Probe 256 (0.62317 0.31993 0)
# Probe 257 (0.55886 0.29771 0)
# Probe 258 (0.68469 0.52252 0)
# Probe 259 (0.69011 0.55665 0)
# Probe 260 (0.55663 0.41263 0)
# Probe 261 (0.44065 0.58684 0)
# Probe 262 (0.53493 0.31883 0)
# Probe 263 (0.38265 0.3544 0)
# Probe 264 (0.52869 0.28803 0)
# Probe 265 (0.61671 0.28479 0)
# Probe 266 (0.65081 0.29711 0)
# Probe 267 (0.36234 0.4898 0)
# Probe 268 (0.7176 0.53488 0)
# Probe 269 (0.72305 0.57037 0)
# Probe 270 (0.69456 0.59239 0)
# Probe 271 (0.72851 0.60681 0)
# Probe 272 (0.69836 0.62969 0)
# Probe 273 (0.73373 0.64434 0)
# Probe 274 (0.70262 0.66794 0)
# Probe 275 (0.7393 0.68309 0)
# Probe 276 (0.70763 0.70706 0)
# Probe 277 (0.74446 0.7234 0)
# Probe 278 (0.67104 0.69145 0)
# Probe 279 (0.64414 0.26029 0)
# Probe 280 (0.68 0.27318 0)
# Probe 281 (0.50204 0.30812 0)
# Probe 282 (0.49911 0.27765 0)
# Probe 283 (0.52297 0.25793 0)
# Probe 284 (0.49199 0.24786 0)
# Probe 285 (0.36278 0.3297 0)
# Probe 286 (0.51686 0.22687 0)
# Probe 287 (0.48571 0.21751 0)
# Probe 288 (0.46204 0.23852 0)
# Probe 289 (0.45553 0.2088 0)
# Probe 290 (0.43113 0.23394 0)
# Probe 291 (0.33646 0.31223 0)
# Probe 292 (0.2844 0.62185 0)
# Probe 293 (0.67572 0.7306 0)
# Probe 294 (0.63992 0.7151 0)
# Probe 295 (0.75229 0.5482 0)
# Probe 296 (0.7458 0.5101 0)
# Probe 297 (0.42585 0.20155 0)
# Probe 298 (0.40439 0.22174 0)
# Probe 299 (0.44318 0.26097 0)
# Probe 300 (0.67306 0.23464 0)
# Probe 301 (0.71047 0.24816 0)
# Probe 302 (0.71621 0.28665 0)
# Probe 303 (0.74842 0.26222 0)
# Probe 304 (0.75442 0.30186 0)
# Probe 305 (0.64427 0.75404 0)
# Probe 306 (0.60875 0.73858 0)
# Probe 307 (0.17725 0.64799 0)
# Probe 308 (0.39772 0.19314 0)
# Probe 309 (0.37736 0.21284 0)
# Probe 310 (0.30618 0.30235 0)
# Probe 311 (0.39747 0.61625 0)
# Probe 312 (0.11236 0.53048 0)
# Probe 313 (0.2356 0.60312 0)
# Probe 314 (0.61303 0.77727 0)
# Probe 315 (0.57769 0.76136 0)
# Probe 316 (0.64624 0.79504 0)
# Probe 317 (0.1615 0.56603 0)
# Probe 318 (0.37009 0.18517 0)
# Probe 319 (0.34862 0.20866 0)
# Probe 320 (0.58196 0.80038 0)
# Probe 321 (0.54654 0.78437 0)
# Probe 322 (0.50937 0.19418 0)
# Probe 323 (0.3427 0.17784 0)
# Probe 324 (0.25355 0.30754 0)
# Probe 325 (0.32238 0.19701 0)
# Probe 326 (0.23391 0.31673 0)
# Probe 327 (0.2741 0.30279 0)
# Probe 328 (0.31527 0.16733 0)
# Probe 329 (0.29463 0.18886 0)
# Probe 330 (0.28732 0.1597 0)
# Probe 331 (0.26573 0.18153 0)
# Probe 332 (0.77761 0.6979 0)
# Probe 333 (0.78318 0.74009 0)
# Probe 334 (0.78232 0.52472 0)
# Probe 335 (0.77524 0.4878 0)
# Probe 336 (0.48234 0.55 0)
# Probe 337 (0.38425 0.23904 0)
# Probe 338 (0.30244 0.21597 0)
# Probe 339 (0.78753 0.27644 0)
# Probe 340 (0.79435 0.31773 0)
# Probe 341 (0.78062 0.23457 0)
# Probe 342 (0.39213 0.1644 0)
# Probe 343 (0.70315 0.20865 0)
# Probe 344 (0.76299 0.62163 0)
# Probe 345 (0.51028 0.33628 0)
# Probe 346 (0.48389 0.32939 0)
# Probe 347 (0.4892 0.35133 0)
# Probe 348 (0.46716 0.3443 0)
# Probe 349 (0.47101 0.36548 0)
# Probe 350 (0.38963 0.71841 0)
# Probe 351 (0.41724 0.73066 0)
# Probe 352 (0.393 0.75078 0)
# Probe 353 (0.42164 0.76258 0)
# Probe 354 (0.39538 0.78473 0)
# Probe 355 (0.42574 0.79778 0)
# Probe 356 (0.66653 0.19446 0)
# Probe 357 (0.44718 0.17832 0)
# Probe 358 (0.51603 0.61413 0)
# Probe 359 (0.39854 0.81886 0)
# Probe 360 (0.36511 0.80622 0)
# Probe 361 (0.25806 0.15178 0)
# Probe 362 (0.23585 0.17387 0)
# Probe 363 (0.24451 0.20467 0)
# Probe 364 (0.21467 0.19589 0)
# Probe 365 (0.22072 0.22306 0)
# Probe 366 (0.19412 0.21711 0)
# Probe 367 (0.18498 0.18856 0)
# Probe 368 (0.20167 0.24384 0)
# Probe 369 (0.17494 0.23756 0)
# Probe 370 (0.18477 0.26549 0)
# Probe 371 (0.15639 0.25749 0)
# Probe 372 (0.16583 0.2859 0)
# Probe 373 (0.44966 0.35934 0)
# Probe 374 (0.45575 0.37819 0)
# Probe 375 (0.47334 0.38524 0)
# Probe 376 (0.4578 0.39685 0)
# Probe 377 (0.47536 0.40467 0)
# Probe 378 (0.46007 0.41522 0)
# Probe 379 (0.47754 0.42392 0)
# Probe 380 (0.4594 0.4348 0)
# Probe 381 (0.44696 0.33838 0)
# Probe 382 (0.47987 0.44345 0)
# Probe 383 (0.46377 0.45474 0)
# Probe 384 (0.14676 0.22828 0)
# Probe 385 (0.76109 0.345 0)
# Probe 386 (0.80309 0.35964 0)
# Probe 387 (0.11807 0.62794 0)
# Probe 388 (0.81774 0.71303 0)
# Probe 389 (0.55034 0.82409 0)
# Probe 390 (0.57437 0.72283 0)
# Probe 391 (0.63546 0.67707 0)
# Probe 392 (0.44647 0.4491 0)
# Probe 393 (0.44867 0.46642 0)
# Probe 394 (0.82138 0.24922 0)
# Probe 395 (0.81378 0.20582 0)
# Probe 396 (0.82408 0.75648 0)
# Probe 397 (0.78844 0.78374 0)
# Probe 398 (0.46603 0.47412 0)
# Probe 399 (0.45013 0.48469 0)
# Probe 400 (0.43378 0.47699 0)
# Probe 401 (0.43468 0.4948 0)
# Probe 402 (0.8125 0.50189 0)
# Probe 403 (0.8194 0.54048 0)
# Probe 404 (0.44781 0.74205 0)
# Probe 405 (0.69585 0.1674 0)
# Probe 406 (0.13783 0.27648 0)
# Probe 407 (0.14493 0.302 0)
# Probe 408 (0.54285 0.20483 0)
# Probe 409 (0.5347 0.16959 0)
# Probe 410 (0.22888 0.24625 0)
# Probe 411 (0.43258 0.83357 0)
# Probe 412 (0.83037 0.80088 0)
# Probe 413 (0.73894 0.47216 0)
# Probe 414 (0.43131 0.34999 0)
# Probe 415 (0.42804 0.33184 0)
# Probe 416 (0.41918 0.48717 0)
# Probe 417 (0.41982 0.50446 0)
# Probe 418 (0.43559 0.51241 0)
# Probe 419 (0.42067 0.52174 0)
# Probe 420 (0.40522 0.51379 0)
# Probe 421 (0.40565 0.53032 0)
# Probe 422 (0.39117 0.52244 0)
# Probe 423 (0.39123 0.53883 0)
# Probe 424 (0.37711 0.53113 0)
# Probe 425 (0.37716 0.54754 0)
# Probe 426 (0.36301 0.53986 0)
# Probe 427 (0.36326 0.55601 0)
# Probe 428 (0.34886 0.54834 0)
# Probe 429 (0.34932 0.56445 0)
# Probe 430 (0.33454 0.5568 0)
# Probe 431 (0.33508 0.57345 0)
# Probe 432 (0.32034 0.5652 0)
# Probe 433 (0.39107 0.55574 0)
# Probe 434 (0.35055 0.58235 0)
# Probe 435 (0.33528 0.59222 0)
# Probe 436 (0.33641 0.14872 0)
# Probe 437 (0.40349 0.85528 0)
# Probe 438 (0.44052 0.38887 0)
# Probe 439 (0.1857 0.28624 0)
# Probe 440 (0.21722 0.3297 0)
# Probe 441 (0.6324 0.56212 0)
# Probe 442 (0.22677 0.14164 0)
# Probe 443 (0.58703 0.84001 0)
# Probe 444 (0.49157 0.39266 0)
# Probe 445 (0.65579 0.33249 0)
# Probe 446 (0.46759 0.49367 0)
# Probe 447 (0.55403 0.86459 0)
# Probe 448 (0.25165 0.11849 0)
# Probe 449 (0.4425 0.31909 0)
# Probe 450 (0.42393 0.31397 0)
# Probe 451 (0.79431 0.82826 0)
# Probe 452 (0.48452 0.48277 0)
# Probe 453 (0.83405 0.33309 0)
# Probe 454 (0.84119 0.37573 0)
# Probe 455 (0.65675 0.15361 0)
# Probe 456 (0.68792 0.12511 0)
# Probe 457 (0.72806 0.13881 0)
# Probe 458 (0.41045 0.32634 0)
# Probe 459 (0.40597 0.30942 0)
# Probe 460 (0.43664 0.53041 0)
# Probe 461 (0.41833 0.47056 0)
# Probe 462 (0.8527 0.51389 0)
# Probe 463 (0.85651 0.55609 0)
# Probe 464 (0.32005 0.54911 0)
# Probe 465 (0.30634 0.55675 0)
# Probe 466 (0.30587 0.57359 0)
# Probe 467 (0.29051 0.56175 0)
# Probe 468 (0.83675 0.84635 0)
# Probe 469 (0.85907 0.72902 0)
# Probe 470 (0.85398 0.68643 0)
# Probe 471 (0.49686 0.43136 0)
# Probe 472 (0.39058 0.50602 0)
# Probe 473 (0.75235 0.81084 0)
# Probe 474 (0.30695 0.54139 0)
# Probe 475 (0.35201 0.60279 0)
# Probe 476 (0.85586 0.22117 0)
# Probe 477 (0.84832 0.17632 0)
# Probe 478 (0.11783 0.29539 0)
# Probe 479 (0.12607 0.32157 0)
# Probe 480 (0.15139 0.32622 0)
# Probe 481 (0.13737 0.3476 0)
# Probe 482 (0.84386 0.46898 0)
# Probe 483 (0.34997 0.53258 0)
# Probe 484 (0.75797 0.85565 0)
# Probe 485 (0.45969 0.80593 0)
# Probe 486 (0.46809 0.84821 0)
# Probe 487 (0.77191 0.4486 0)
# Probe 488 (0.73239 0.4339 0)
# Probe 489 (0.56993 0.18128 0)
# Probe 490 (0.56262 0.14438 0)
# Probe 491 (0.52546 0.13268 0)
# Probe 492 (0.55457 0.10589 0)
# Probe 493 (0.39502 0.32268 0)
# Probe 494 (0.38798 0.30791 0)
# Probe 495 (0.40114 0.29281 0)
# Probe 496 (0.38363 0.28955 0)
# Probe 497 (0.37187 0.30183 0)
# Probe 498 (0.367 0.28615 0)
# Probe 499 (0.89427 0.70326 0)
# Probe 500 (0.33538 0.61443 0)
# Probe 501 (0.10535 0.2626 0)
# Probe 502 (0.10859 0.34205 0)
# Probe 503 (0.11862 0.36648 0)
# Probe 504 (0.14085 0.36997 0)
# Probe 505 (0.13101 0.38996 0)
# Probe 506 (0.10221 0.38693 0)
# Probe 507 (0.11431 0.4107 0)
# Probe 508 (0.08451 0.40632 0)
# Probe 509 (0.13883 0.41364 0)
# Probe 510 (0.12559 0.43312 0)
# Probe 511 (0.40525 0.47982 0)
# Probe 512 (0.14868 0.43513 0)
# Probe 513 (0.13536 0.45354 0)
# Probe 514 (0.11213 0.45301 0)
# Probe 515 (0.12439 0.47412 0)
# Probe 516 (0.14883 0.47176 0)
# Probe 517 (0.36635 0.59119 0)
# Probe 518 (0.29047 0.58149 0)
# Probe 519 (0.27565 0.57182 0)
# Probe 520 (0.27507 0.55447 0)
# Probe 521 (0.26127 0.56268 0)
# Probe 522 (0.26197 0.54623 0)
# Probe 523 (0.2478 0.55342 0)
# Probe 524 (0.57565 0.216 0)
# Probe 525 (0.65939 0.61238 0)
# Probe 526 (0.70308 0.45827 0)
# Probe 527 (0.13801 0.49361 0)
# Probe 528 (0.15984 0.49292 0)
# Probe 529 (0.15014 0.51151 0)
# Probe 530 (0.1705 0.50934 0)
# Probe 531 (0.51149 0.36172 0)
# Probe 532 (0.24884 0.53803 0)
# Probe 533 (0.23435 0.54489 0)
# Probe 534 (0.23671 0.52813 0)
# Probe 535 (0.22079 0.53584 0)
# Probe 536 (0.21934 0.55321 0)
# Probe 537 (0.20357 0.54382 0)
# Probe 538 (0.20837 0.52729 0)
# Probe 539 (0.71666 0.83846 0)
# Probe 540 (0.72236 0.88157 0)
# Probe 541 (0.67211 0.86243 0)
# Probe 542 (0.86272 0.26475 0)
# Probe 543 (0.87345 0.818 0)
# Probe 544 (0.88905 0.53103 0)
# Probe 545 (0.20305 0.56208 0)
# Probe 546 (0.18069 0.49238 0)
# Probe 547 (0.89844 0.23748 0)
# Probe 548 (0.21765 0.10736 0)
# Probe 549 (0.19088 0.13259 0)
# Probe 550 (0.5992 0.11678 0)
# Probe 551 (0.87462 0.34844 0)
# Probe 552 (0.8815 0.39208 0)
# Probe 553 (0.59235 0.88114 0)
# Probe 554 (0.55819 0.90661 0)
# Probe 555 (0.39936 0.27167 0)
# Probe 556 (0.24256 0.08144 0)
# Probe 557 (0.49954 0.45189 0)
# Probe 558 (0.80506 0.16108 0)
# Probe 559 (0.84109 0.13152 0)
# Probe 560 (0.27197 0.59225 0)
# Probe 561 (0.82511 0.58064 0)
# Probe 562 (0.85688 0.60091 0)
# Probe 563 (0.35541 0.29961 0)
# Probe 564 (0.3501 0.28341 0)
# Probe 565 (0.36144 0.27036 0)
# Probe 566 (0.34433 0.26741 0)
# Probe 567 (0.33348 0.28075 0)
# Probe 568 (0.32728 0.26544 0)
# Probe 569 (0.33783 0.25395 0)
# Probe 570 (0.31591 0.28085 0)
# Probe 571 (0.31048 0.26371 0)
# Probe 572 (0.29971 0.2769 0)
# Probe 573 (0.29405 0.26147 0)
# Probe 574 (0.28417 0.27456 0)
# Probe 575 (0.27738 0.25892 0)
# Probe 576 (0.26698 0.2739 0)
# Probe 577 (0.073 0.37576 0)
# Probe 578 (0.26406 0.53303 0)
# Probe 579 (0.43813 0.29955 0)
# Probe 580 (0.51726 0.43941 0)
# Probe 581 (0.52042 0.46218 0)
# Probe 582 (0.34245 0.72349 0)
# Probe 583 (0.31928 0.74132 0)
# Probe 584 (0.2918 0.72852 0)
# Probe 585 (0.29378 0.75998 0)
# Probe 586 (0.26345 0.74548 0)
# Probe 587 (0.26663 0.77999 0)
# Probe 588 (0.23413 0.76424 0)
# Probe 589 (0.23784 0.80078 0)
# Probe 590 (0.20404 0.78495 0)
# Probe 591 (0.27017 0.81678 0)
# Probe 592 (0.20473 0.82402 0)
# Probe 593 (0.20113 0.74739 0)
# Probe 594 (0.1705 0.76809 0)
# Probe 595 (0.16804 0.73051 0)
# Probe 596 (0.13502 0.75083 0)
# Probe 597 (0.13725 0.79119 0)
# Probe 598 (0.13436 0.71219 0)
# Probe 599 (0.10139 0.77269 0)
# Probe 600 (0.48622 0.50317 0)
# Probe 601 (0.46875 0.51392 0)
# Probe 602 (0.4041 0.46569 0)
# Probe 603 (0.41517 0.45761 0)
# Probe 604 (0.69765 0.42114 0)
# Probe 605 (0.30568 0.59128 0)
# Probe 606 (0.19787 0.71165 0)
# Probe 607 (0.39872 0.33716 0)
# Probe 608 (0.38379 0.33396 0)
# Probe 609 (0.3256 0.29537 0)
# Probe 610 (0.88021 0.86447 0)
# Probe 611 (0.68576 0.9125 0)
# Probe 612 (0.09937 0.47392 0)
# Probe 613 (0.28882 0.28974 0)
# Probe 614 (0.26 0.25671 0)
# Probe 615 (0.27128 0.24135 0)
# Probe 616 (0.25014 0.27165 0)
# Probe 617 (0.16043 0.41602 0)
# Probe 618 (0.27868 0.1011 0)
# Probe 619 (0.88281 0.1468 0)
# Probe 620 (0.51376 0.41842 0)
# Probe 621 (0.52034 0.89061 0)
# Probe 622 (0.19107 0.53267 0)
# Probe 623 (0.72054 0.09686 0)
# Probe 624 (0.72505 0.39671 0)
# Probe 625 (0.45841 0.30527 0)
# Probe 626 (0.69259 0.38319 0)
# Probe 627 (0.76119 0.11065 0)
# Probe 628 (0.24613 0.57027 0)
# Probe 629 (0.84527 0.89074 0)
# Probe 630 (0.32012 0.53483 0)
# Probe 631 (0.71409 0.79261 0)
# Probe 632 (0.16292 0.52721 0)
# Probe 633 (0.09242 0.2904 0)
# Probe 634 (0.82775 0.62395 0)
# Probe 635 (0.53601 0.44907 0)
# Probe 636 (0.54318 0.4733 0)
# Probe 637 (0.25602 0.28673 0)
# Probe 638 (0.24039 0.28446 0)
# Probe 639 (0.21689 0.57191 0)
# Probe 640 (0.5031 0.49243 0)
# Probe 641 (0.51564 0.09613 0)
# Probe 642 (0.48861 0.12262 0)
# Probe 643 (0.34378 0.75575 0)
# Probe 644 (0.05157 0.60818 0)
# Probe 645 (0.04605 0.66222 0)
# Probe 646 (0.152 0.39849 0)
# Probe 647 (0.60523 0.19359 0)
# Probe 648 (0.89036 0.66583 0)
# Probe 649 (0.08559 0.45138 0)
# Probe 650 (0.40479 0.24762 0)
# Probe 651 (0.30446 0.24786 0)
# Probe 652 (0.21166 0.26845 0)
# Probe 653 (0.81063 0.40154 0)
# Probe 654 (0.67639 0.0842 0)
# Probe 655 (0.10276 0.81529 0)
# Probe 656 (0.14008 0.83197 0)
# Probe 657 (0.1074 0.86169 0)
# Probe 658 (0.14748 0.87844 0)
# Probe 659 (0.11 0.9091 0)
# Probe 660 (0.37209 0.61211 0)
# Probe 661 (0.54189 0.07041 0)
# Probe 662 (0.41407 0.28158 0)
# Probe 663 (0.30723 0.52719 0)
# Probe 664 (0.29637 0.53284 0)
# Probe 665 (0.90184 0.28143 0)
# Probe 666 (0.34084 0.29478 0)
# Probe 667 (0.25128 0.24046 0)
# Probe 668 (0.36274 0.31212 0)
# Probe 669 (0.37406 0.31549 0)
# Probe 670 (0.18935 0.50766 0)
# Probe 671 (0.19785 0.49367 0)
# Probe 672 (0.32596 0.21786 0)
# Probe 673 (0.39384 0.47237 0)
# Probe 674 (0.39253 0.48423 0)
# Probe 675 (0.51722 0.80725 0)
# Probe 676 (0.51153 0.77336 0)
# Probe 677 (0.16635 0.31119 0)
# Probe 678 (0.19134 0.31153 0)
# Probe 679 (0.17132 0.3318 0)
# Probe 680 (0.16007 0.34629 0)
# Probe 681 (0.17925 0.34962 0)
# Probe 682 (0.16797 0.36139 0)
# Probe 683 (0.18102 0.09668 0)
# Probe 684 (0.15222 0.12436 0)
# Probe 685 (0.14198 0.08337 0)
# Probe 686 (0.11288 0.11643 0)
# Probe 687 (0.12575 0.15552 0)
# Probe 688 (0.36315 0.23408 0)
# Probe 689 (0.41457 0.34297 0)
# Probe 690 (0.41725 0.35953 0)
# Probe 691 (0.4322 0.36606 0)
# Probe 692 (0.41846 0.37483 0)
# Probe 693 (0.4042 0.36692 0)
# Probe 694 (0.03534 0.43358 0)
# Probe 695 (0.9036 0.74642 0)
# Probe 696 (0.93586 0.71657 0)
# Probe 697 (0.27468 0.05413 0)
# Probe 698 (0.16972 0.47644 0)
# Probe 699 (0.16438 0.4599 0)
# Probe 700 (0.13837 0.5528 0)
# Probe 701 (0.27546 0.28533 0)
# Probe 702 (0.47025 0.26978 0)
# Probe 703 (0.03725 0.27993 0)
# Probe 704 (0.62589 0.8554 0)
# Probe 705 (0.63444 0.89588 0)
# Probe 706 (0.66811 0.44579 0)
# Probe 707 (0.91668 0.36389 0)
# Probe 708 (0.92096 0.41053 0)
# Probe 709 (0.88743 0.43692 0)
# Probe 710 (0.40159 0.35263 0)
# Probe 711 (0.33527 0.53899 0)
# Probe 712 (0.33092 0.52608 0)
# Probe 713 (0.2656 0.715 0)
# Probe 714 (0.26044 0.61188 0)
# Probe 715 (0.48778 0.52506 0)
# Probe 716 (0.2749 0.54038 0)
# Probe 717 (0.72261 0.36204 0)
# Probe 718 (0.16584 0.43311 0)
# Probe 719 (0.52154 0.93115 0)
# Probe 720 (0.37508 0.51505 0)
# Probe 721 (0.37544 0.50216 0)
# Probe 722 (0.36579 0.50716 0)
# Probe 723 (0.39326 0.46043 0)
# Probe 724 (0.41997 0.60304 0)
# Probe 725 (0.41533 0.57719 0)
# Probe 726 (0.43203 0.56274 0)
# Probe 727 (0.39782 0.59152 0)
# Probe 728 (0.45827 0.56627 0)
# Probe 729 (0.45855 0.54302 0)
# Probe 730 (0.41526 0.5569 0)
# Probe 731 (0.18692 0.47788 0)
# Probe 732 (0.18642 0.33448 0)
# Probe 733 (0.44337 0.40675 0)
# Probe 734 (0.42778 0.40091 0)
# Probe 735 (0.43005 0.41592 0)
# Probe 736 (0.41539 0.40971 0)
# Probe 737 (0.41807 0.42478 0)
# Probe 738 (0.41537 0.39473 0)
# Probe 739 (0.43072 0.4304 0)
# Probe 740 (0.42035 0.43794 0)
# Probe 741 (0.40764 0.43411 0)
# Probe 742 (0.61032 0.25134 0)
# Probe 743 (0.94228 0.2531 0)
# Probe 744 (0.76445 0.89956 0)
# Probe 745 (0.39458 0.36256 0)
# Probe 746 (0.082 0.51513 0)
# Probe 747 (0.91732 0.83918 0)
# Probe 748 (0.36258 0.52523 0)
# Probe 749 (0.35158 0.51895 0)
# Probe 750 (0.55135 0.38341 0)
# Probe 751 (0.20484 0.50461 0)
# Probe 752 (0.30654 0.6335 0)
# Probe 753 (0.87617 0.09963 0)
# Probe 754 (0.83357 0.0859 0)
# Probe 755 (0.43098 0.45917 0)
# Probe 756 (0.295 0.54569 0)
# Probe 757 (0.04142 0.17706 0)
# Probe 758 (0.07826 0.20095 0)
# Probe 759 (0.36998 0.48257 0)
# Probe 760 (0.39772 0.40486 0)
# Probe 761 (0.39564 0.43703 0)
# Probe 762 (0.402 0.44448 0)
# Probe 763 (0.336 0.50744 0)
# Probe 764 (0.18026 0.46372 0)
# Probe 765 (0.17559 0.44855 0)
# Probe 766 (0.27592 0.20712 0)
# Probe 767 (0.40268 0.49561 0)
# Probe 768 (0.60496 0.70054 0)
# Probe 769 (0.60123 0.6637 0)
# Probe 770 (0.62972 0.64114 0)
# Probe 771 (0.59741 0.62806 0)
# Probe 772 (0.56974 0.64907 0)
# Probe 773 (0.62129 0.60606 0)
# Probe 774 (0.58966 0.59507 0)
# Probe 775 (0.5706 0.68642 0)
# Probe 776 (0.54197 0.70498 0)
# Probe 777 (0.53806 0.66464 0)
# Probe 778 (0.51166 0.68737 0)
# Probe 779 (0.5107 0.72019 0)
# Probe 780 (0.48553 0.70466 0)
# Probe 781 (0.50441 0.65668 0)
# Probe 782 (0.53809 0.7447 0)
# Probe 783 (0.5659 0.61431 0)
# Probe 784 (0.33125 0.63909 0)
# Probe 785 (0.32653 0.51409 0)
# Probe 786 (0.39683 0.39419 0)
# Probe 787 (0.29614 0.52022 0)
# Probe 788 (0.27413 0.51689 0)
# Probe 789 (0.53899 0.35264 0)
# Probe 790 (0.16542 0.69597 0)
# Probe 791 (0.1377 0.68466 0)
# Probe 792 (0.10573 0.68829 0)
# Probe 793 (0.19205 0.6776 0)
# Probe 794 (0.37791 0.3454 0)
# Probe 795 (0.35418 0.49656 0)
# Probe 796 (0.26277 0.51514 0)
# Probe 797 (0.3703 0.33722 0)
# Probe 798 (0.35553 0.32154 0)
# Probe 799 (0.20946 0.49435 0)
# Probe 800 (0.2432 0.50813 0)
# Probe 801 (0.03658 0.77506 0)
# Probe 802 (0.34572 0.31704 0)
# Probe 803 (0.32676 0.30798 0)
# Probe 804 (0.6661 0.65328 0)
# Probe 805 (0.24356 0.31161 0)
# Probe 806 (0.23375 0.30571 0)
# Probe 807 (0.22356 0.31154 0)
# Probe 808 (0.22229 0.29841 0)
# Probe 809 (0.21229 0.3057 0)
# Probe 810 (0.21007 0.28993 0)
# Probe 811 (0.2338 0.5033 0)
# Probe 812 (0.22484 0.50855 0)
# Probe 813 (0.29574 0.30099 0)
# Probe 814 (0.31633 0.30487 0)
# Probe 815 (0.3784 0.63555 0)
# Probe 816 (0.92075 0.11576 0)
# Probe 817 (0.20973 0.33723 0)
# Probe 818 (0.20679 0.32693 0)
# Probe 819 (0.28468 0.30175 0)
# Probe 820 (0.26376 0.30478 0)
# Probe 821 (0.2085 0.48422 0)
# Probe 822 (0.56675 0.95423 0)
# Probe 823 (0.16954 0.39955 0)
# Probe 824 (0.16389 0.38574 0)
# Probe 825 (0.24513 0.29833 0)
# Probe 826 (0.08219 0.23577 0)
# Probe 827 (0.3725 0.04188 0)
# Probe 828 (0.35326 0.08073 0)
# Probe 829 (0.39343 0.08045 0)
# Probe 830 (0.37434 0.11021 0)
# Probe 831 (0.41255 0.11165 0)
# Probe 832 (0.43325 0.08162 0)
# Probe 833 (0.7199 0.04789 0)
# Probe 834 (0.19745 0.35453 0)
# Probe 835 (0.18738 0.37307 0)
# Probe 836 (0.54155 0.6337 0)
# Probe 837 (0.1879 0.44668 0)
# Probe 838 (0.19514 0.46587 0)
# Probe 839 (0.18175 0.41532 0)
# Probe 840 (0.1847 0.43691 0)
# Probe 841 (0.18112 0.40503 0)
# Probe 842 (0.18436 0.38371 0)
# Probe 843 (0.17387 0.3754 0)
# Probe 844 (0.23281 0.72578 0)
# Probe 845 (0.22151 0.04129 0)
# Probe 846 (0.37379 0.95736 0)
# Probe 847 (0.35 0.91628 0)
# Probe 848 (0.30436 0.91696 0)
# Probe 849 (0.3265 0.87831 0)
# Probe 850 (0.28497 0.87901 0)
# Probe 851 (0.25922 0.91662 0)
# Probe 852 (0.24501 0.87792 0)
# Probe 853 (0.39391 0.91758 0)
# Probe 854 (0.21687 0.91267 0)
# Probe 855 (0.42281 0.95727 0)
# Probe 856 (0.44456 0.91158 0)
# Probe 857 (0.19856 0.8711 0)
# Probe 858 (0.30358 0.83798 0)
# Probe 859 (0.34447 0.84134 0)
# Probe 860 (0.67254 0.9589 0)
# Probe 861 (0.71834 0.95681 0)
# Probe 862 (0.67685 0.4851 0)
# Probe 863 (0.35398 0.62666 0)
# Probe 864 (0.95973 0.52755 0)
# Probe 865 (0.95895 0.57663 0)
# Probe 866 (0.92119 0.60023 0)
# Probe 867 (0.74911 0.7662 0)
# Probe 868 (0.03744 0.87267 0)
# Probe 869 (0.40498 0.38898 0)
# Probe 870 (0.18369 0.57659 0)
# Probe 871 (0.71116 0.49717 0)
# Probe 872 (0.23428 0.51447 0)
# Probe 873 (0.38087 0.48458 0)
# Probe 874 (0.38296 0.46572 0)
# Probe 875 (0.08247 0.15436 0)
# Probe 876 (0.30273 0.29114 0)
# Probe 877 (0.11289 0.22196 0)
# Probe 878 (0.54323 0.49866 0)
# Probe 879 (0.12531 0.95688 0)
# Probe 880 (0.75843 0.41081 0)
# Probe 881 (0.27772 0.95827 0)
# Probe 882 (0.82516 0.95939 0)
# Probe 883 (0.84614 0.41997 0)
# Probe 884 (0.88801 0.48442 0)
# Probe 885 (0.8109 0.44079 0)
# Probe 886 (0.92479 0.95783 0)
# Probe 887 (0.89296 0.91464 0)
# Probe 888 (0.1034 0.73089 0)
# Probe 889 (0.48023 0.73331 0)
# Probe 890 (0.12427 0.04215 0)
# Probe 891 (0.96005 0.67856 0)
# Probe 892 (0.32701 0.80912 0)
# Probe 893 (0.50035 0.15916 0)
# Probe 894 (0.81366 0.6665 0)
# Probe 895 (0.58225 0.56488 0)
# Probe 896 (0.7721 0.19143 0)
# Probe 897 (0.25376 0.52396 0)
# Probe 898 (0.39721 0.4259 0)
# Probe 899 (0.37228 0.87664 0)
# Probe 900 (0.66269 0.5765 0)
# Probe 901 (0.34431 0.30643 0)
# Probe 902 (0.43919 0.71091 0)
# Probe 903 (0.47295 0.76757 0)
# Probe 904 (0.11059 0.49939 0)
# Probe 905 (0.22524 0.28451 0)
# Probe 906 (0.64678 0.11139 0)
# Probe 907 (0.39204 0.37349 0)
# Probe 908 (0.23096 0.95728 0)
# Probe 909 (0.78821 0.56352 0)
# Probe 910 (0.43361 0.68227 0)
# Probe 911 (0.41569 0.04274 0)
# Probe 912 (0.18338 0.55173 0)
# Probe 913 (0.86672 0.7736 0)
# Probe 914 (0.6341 0.21936 0)
# Probe 915 (0.82784 0.29143 0)
# Probe 916 (0.80061 0.87297 0)
# Probe 917 (0.88954 0.19299 0)
# Probe 918 (0.22322 0.52142 0)
# Probe 919 (0.68461 0.31002 0)
# Probe 920 (0.74126 0.22117 0)
# Probe 921 (0.30322 0.61209 0)
# Probe 922 (0.51206 0.84843 0)
# Probe 923 (0.48423 0.91363 0)
# Probe 924 (0.54773 0.23664 0)
# Probe 925 (0.42244 0.5421 0)
# Probe 926 (0.4451 0.42309 0)
# Probe 927 (0.03801 0.07716 0)
# Probe 928 (0.58408 0.27601 0)
# Probe 929 (0.61666 0.81639 0)
# Probe 930 (0.60222 0.92155 0)
# Probe 931 (0.59967 0.15896 0)
# Probe 932 (0.95883 0.38053 0)
# Probe 933 (0.6289 0.35371 0)
# Probe 934 (0.07589 0.95054 0)
# Probe 935 (0.47394 0.08206 0)
# Probe 936 (0.44071 0.86914 0)
# Probe 937 (0.1637 0.16006 0)
# Probe 938 (0.14425 0.19273 0)
# Probe 939 (0.71213 0.74652 0)
# Probe 940 (0.76912 0.65867 0)
# Probe 941 (0.45556 0.66464 0)
# Probe 942 (0.45061 0.50272 0)
# Probe 943 (0.67914 0.81471 0)
# Probe 944 (0.95311 0.91994 0)
# Probe 945 (0.9252 0.04027 0)
# Probe 946 (0.45041 0.11546 0)
# Probe 947 (0.42556 0.1469 0)
# Probe 948 (0.75778 0.58482 0)
# Probe 949 (0.27713 0.52771 0)
# Probe 950 (0.6786 0.77225 0)
# Probe 951 (0.48112 0.29562 0)
# Probe 952 (0.22519 0.32278 0)
# Probe 953 (0.35478 0.25302 0)
# Probe 954 (0.24128 0.8378 0)
# Probe 955 (0.49619 0.62992 0)
# Probe 956 (0.43223 0.44348 0)
# Probe 957 (0.53798 0.60067 0)
# Probe 958 (0.30559 0.51613 0)
# Probe 959 (0.33978 0.11492 0)
# Probe 960 (0.30767 0.1306 0)
# Probe 961 (0.48241 0.46314 0)
# Probe 962 (0.03714 0.36433 0)
# Probe 963 (0.42444 0.38743 0)
# Probe 964 (0.58551 0.07517 0)
# Probe 965 (0.08869 0.61821 0)
# Probe 966 (0.09443 0.65149 0)
# Probe 967 (0.91143 0.7927 0)
# Probe 968 (0.29731 0.79594 0)
# Probe 969 (0.32083 0.77502 0)
# Probe 970 (0.41874 0.29701 0)
# Probe 971 (0.29368 0.69942 0)