# Probe 0 (0 0 0)
# Probe 1 (1 0 0)
# Probe 2 (1 1 0)
# Probe 3 (0 1 0)
# Probe 4 (0.45 0.5 0)
# Probe 5 (0.35 0.4 0)
# Probe 6 (0.25 0.5 0)
# Probe 7 (0.35 0.6 0)
# Probe 8 (0.05 0 0)
# Probe 9 (0.1 0 0)
# Probe 10 (0.15 0 0)
# Probe 11 (0.2 0 0)
# Probe 12 (0.25 0 0)
# Probe 13 (0.3 0 0)
# Probe 14 (0.35 0 0)
# Probe 15 (0.4 0 0)
# Probe 16 (0.45 0 0)
# Probe 17 (0.5 0 0)
# Probe 18 (0.55 0 0)
# Probe 19 (0.6 0 0)
# Probe 20 (0.65 0 0)
# Probe 21 (0.7 0 0)
# Probe 22 (0.75 0 0)
# Probe 23 (0.8 0 0)
# Probe 24 (0.85 0 0)
# Probe 25 (0.9 0 0)
# Probe 26 (0.95 0 0)
# Probe 27 (1 0.05 0)
# Probe 28 (1 0.1 0)
# Probe 29 (1 0.15 0)
# Probe 30 (1 0.2 0)
# Probe 31 (1 0.25 0)
# Probe 32 (1 0.3 0)
# Probe 33 (1 0.35 0)
# Probe 34 (1 0.4 0)
# Probe 35 (1 0.45 0)
# Probe 36 (1 0.5 0)
# Probe 37 (1 0.55 0)
# Probe 38 (1 0.6 0)
# Probe 39 (1 0.65 0)
# Probe 40 (1 0.7 0)
# Probe 41 (1 0.75 0)
# Probe 42 (1 0.8 0)
# Probe 43 (1 0.85 0)
# Probe 44 (1 0.9 0)
# Probe 45 (1 0.95 0)
# Probe 46 (0.95 1 0)
# Probe 47 (0.9 1 0)
# Probe 48 (0.85 1 0)
# Probe 49 (0.8 1 0)
# Probe 50 (0.75 1 0)
# Probe 51 (0.7 1 0)
# Probe 52 (0.65 1 0)
# Probe 53 (0.6 1 0)
# Probe 54 (0.55 1 0)
# Probe 55 (0.5 1 0)
# Probe 56 (0.45 1 0)
# Probe 57 (0.4 1 0)
# Probe 58 (0.35 1 0)
# Probe 59 (0.3 1 0)
# Probe 60 (0.25 1 0)
# Probe 61 (0.2 1 0)
# Probe 62 (0.15 1 0)
# Probe 63 (0.1 1 0)
# Probe 64 (0.05 1 0)
# Probe 65 (0 0.95 0)
# Probe 66 (0 0.9 0)
# Probe 67 (0 0.85 0)
# Probe 68 (0 0.8 0)
# Probe 69 (0 0.75 0)
# Probe 70 (0 0.7 0)
# Probe 71 (0 0.65 0)
# Probe 72 (0 0.6 0)
# Probe 73 (0 0.55 0)
# Probe 74 (0 0.5 0)
# Probe 75 (0 0.45 0)
# Probe 76 (0 0.4 0)
# Probe 77 (0 0.35 0)
# Probe 78 (0 0.3 0)
# Probe 79 (0 0.25 0)
# Probe 80 (0 0.2 0)
# Probe 81 (0 0.15 0)
# Probe 82 (0 0.1 0)
# Probe 83 (0 0.05 0)
# Probe 84 (0.44952 0.4902 0)
# Probe 85 (0.44808 0.48049 0)
# Probe 86 (0.44569 0.47097 0)
# Probe 87 (0.44239 0.46173 0)
# Probe 88 (0.43819 0.45286 0)
# Probe 89 (0.43315 0.44444 0)
# Probe 90 (0.4273 0.43656 0)
# Probe 91 (0.42071 0.42929 0)
# Probe 92 (0.41344 0.4227 0)
# Probe 93 (0.40556 0.41685 0)
# Probe 94 (0.39714 0.41181 0)
# Probe 95 (0.38827 0.40761 0)
# Probe 96 (0.37903 0.40431 0)
# Probe 97 (0.36951 0.40192 0)
# Probe 98 (0.3598 0.40048 0)
# Probe 99 (0.3402 0.40048 0)
# Probe 100 (0.33049 0.40192 0)
# Probe 101 (0.32097 0.40431 0)
# Probe 102 (0.31173 0.40761 0)
# Probe 103 (0.30286 0.41181 0)
# Probe 104 (0.29444 0.41685 0)
# Probe 105 (0.28656 0.4227 0)
# Probe 106 (0.27929 0.42929 0)
# Probe 107 (0.2727 0.43656 0)
# Probe 108 (0.26685 0.44444 0)
# Probe 109 (0.26181 0.45286 0)
# Probe 110 (0.25761 0.46173 0)
# Probe 111 (0.25431 0.47097 0)
# Probe 112 (0.25192 0.48049 0)
# Probe 113 (0.25048 0.4902 0)
# Probe 114 (0.25048 0.5098 0)
# Probe 115 (0.25192 0.51951 0)
# Probe 116 (0.25431 0.52903 0)
# Probe 117 (0.25761 0.53827 0)
# Probe 118 (0.26181 0.54714 0)
# Probe 119 (0.26685 0.55556 0)
# Probe 120 (0.2727 0.56344 0)
# Probe 121 (0.27929 0.57071 0)
# Probe 122 (0.28656 0.5773 0)
# Probe 123 (0.29444 0.58315 0)
# Probe 124 (0.30286 0.58819 0)
# Probe 125 (0.31173 0.59239 0)
# Probe 126 (0.32097 0.59569 0)
# Probe 127 (0.33049 0.59808 0)
# Probe 128 (0.3402 0.59952 0)
# Probe 129 (0.3598 0.59952 0)
# Probe 130 (0.36951 0.59808 0)
# Probe 131 (0.37903 0.59569 0)
# Probe 132 (0.38827 0.59239 0)
# Probe 133 (0.39714 0.58819 0)
# Probe 134 (0.40556 0.58315 0)
# Probe 135 (0.41344 0.5773 0)
# Probe 136 (0.42071 0.57071 0)
# Probe 137 (0.4273 0.56344 0)
# Probe 138 (0.43315 0.55556 0)
# Probe 139 (0.43819 0.54714 0)
# Probe 140 (0.44239 0.53827 0)
# Probe 141 (0.44569 0.52903 0)
# Probe 142 (0.44808 0.51951 0)
# Probe 143 (0.44952 0.5098 0)
# Probe 144 (0.96388 0.68077 0)
# Probe 145 (0.95954 0.32479 0)
# Probe 146 (0.6273 0.96027 0)
# Probe 147 (0.6225 0.03997 0)
# Probe 148 (0.47334 0.04246 0)
# Probe 149 (0.22513 0.96013 0)
# Probe 150 (0.46864 0.9525 0)
# Probe 151 (0.22573 0.03816 0)
# Probe 152 (0.95732 0.52387 0)
# Probe 153 (0.03989 0.72547 0)
# Probe 154 (0.03775 0.27123 0)
# Probe 155 (0.77205 0.95701 0)
# Probe 156 (0.775 0.0433 0)
# Probe 157 (0.04321 0.42385 0)
# Probe 158 (0.24217 0.48458 0)
# Probe 159 (0.03565 0.57332 0)
# Probe 160 (0.24266 0.51495 0)
# Probe 161 (0.95893 0.8263 0)
# Probe 162 (0.9567 0.175 0)
# Probe 163 (0.0408 0.82272 0)
# Probe 164 (0.04722 0.1748 0)
# Probe 165 (0.37666 0.04829 0)
# Probe 166 (0.32482 0.95896 0)
# Probe 167 (0.95955 0.42682 0)
# Probe 168 (0.12922 0.95578 0)
# Probe 169 (0.125 0.0433 0)
# Probe 170 (0.87193 0.95944 0)
# Probe 171 (0.8745 0.04298 0)
# Probe 172 (0.03894 0.92368 0)
# Probe 173 (0.04759 0.07526 0)
# Probe 174 (0.95061 0.9229 0)
# Probe 175 (0.95246 0.07853 0)
# Probe 176 (0.42569 0.03985 0)
# Probe 177 (0.44661 0.0811 0)
# Probe 178 (0.4927 0.0828 0)
# Probe 179 (0.47248 0.11851 0)
# Probe 180 (0.51145 0.11961 0)
# Probe 181 (0.49181 0.15195 0)
# Probe 182 (0.45396 0.15213 0)
# Probe 183 (0.52846 0.15325 0)
# Probe 184 (0.50961 0.18347 0)
# Probe 185 (0.54457 0.18481 0)
# Probe 186 (0.52664 0.2136 0)
# Probe 187 (0.56013 0.21489 0)
# Probe 188 (0.54339 0.24255 0)
# Probe 189 (0.41494 0.41271 0)
# Probe 190 (0.57518 0.24384 0)
# Probe 191 (0.55489 0.27324 0)
# Probe 192 (0.58886 0.27197 0)
# Probe 193 (0.57342 0.29766 0)
# Probe 194 (0.43705 0.43544 0)
# Probe 195 (0.60324 0.29849 0)
# Probe 196 (0.58787 0.32327 0)
# Probe 197 (0.61731 0.32443 0)
# Probe 198 (0.60196 0.34893 0)
# Probe 199 (0.63095 0.3502 0)
# Probe 200 (0.61739 0.3739 0)
# Probe 201 (0.45263 0.4628 0)
# Probe 202 (0.64469 0.37571 0)
# Probe 203 (0.63138 0.3994 0)
# Probe 204 (0.64675 0.32435 0)
# Probe 205 (0.51297 0.24069 0)
# Probe 206 (0.65863 0.40101 0)
# Probe 207 (0.64352 0.42571 0)
# Probe 208 (0.67239 0.42677 0)
# Probe 209 (0.65665 0.45125 0)
# Probe 210 (0.68829 0.40145 0)
# Probe 211 (0.62823 0.45031 0)
# Probe 212 (0.64072 0.47614 0)
# Probe 213 (0.45837 0.50555 0)
# Probe 214 (0.66993 0.47697 0)
# Probe 215 (0.65332 0.50269 0)
# Probe 216 (0.6839 0.50414 0)
# Probe 217 (0.66706 0.52962 0)
# Probe 218 (0.63635 0.528 0)
# Probe 219 (0.64979 0.55483 0)
# Probe 220 (0.61963 0.55232 0)
# Probe 221 (0.63242 0.57979 0)
# Probe 222 (0.45181 0.53672 0)
# Probe 223 (0.66298 0.58272 0)
# Probe 224 (0.64495 0.60811 0)
# Probe 225 (0.61345 0.6047 0)
# Probe 226 (0.62651 0.63314 0)
# Probe 227 (0.59579 0.62994 0)
# Probe 228 (0.43603 0.56442 0)
# Probe 229 (0.65718 0.63631 0)
# Probe 230 (0.60813 0.65764 0)
# Probe 231 (0.57852 0.65453 0)
# Probe 232 (0.59037 0.68225 0)
# Probe 233 (0.56052 0.67916 0)
# Probe 234 (0.56013 0.32185 0)
# Probe 235 (0.57282 0.70663 0)
# Probe 236 (0.54279 0.70387 0)
# Probe 237 (0.4145 0.58734 0)
# Probe 238 (0.59966 0.70723 0)
# Probe 239 (0.60693 0.24526 0)
# Probe 240 (0.55532 0.73135 0)
# Probe 241 (0.52526 0.72762 0)
# Probe 242 (0.51329 0.70103 0)
# Probe 243 (0.49615 0.72385 0)
# Probe 244 (0.56998 0.62881 0)
# Probe 245 (0.48482 0.69847 0)
# Probe 246 (0.46769 0.72038 0)
# Probe 247 (0.38651 0.60217 0)
# Probe 248 (0.45673 0.48479 0)
# Probe 249 (0.47894 0.74611 0)
# Probe 250 (0.45099 0.74192 0)
# Probe 251 (0.4403 0.71678 0)
# Probe 252 (0.4238 0.73742 0)
# Probe 253 (0.41399 0.71278 0)
# Probe 254 (0.39687 0.73265 0)
# Probe 255 (0.34446 0.60845 0)
# Probe 256 (0.40693 0.75839 0)
# Probe 257 (0.38022 0.75304 0)
# Probe 258 (0.37043 0.72787 0)
# Probe 259 (0.35409 0.74765 0)
# Probe 260 (0.34538 0.72312 0)
# Probe 261 (0.32883 0.74225 0)
# Probe 262 (0.32074 0.71814 0)
# Probe 263 (0.27722 0.5803 0)
# Probe 264 (0.30357 0.598 0)
# Probe 265 (0.30345 0.73709 0)
# Probe 266 (0.29521 0.71269 0)
# Probe 267 (0.27646 0.73326 0)
# Probe 268 (0.26825 0.70675 0)
# Probe 269 (0.24867 0.72815 0)
# Probe 270 (0.24127 0.70056 0)
# Probe 271 (0.25684 0.55612 0)
# Probe 272 (0.32357 0.60542 0)
# Probe 273 (0.24772 0.53642 0)
# Probe 274 (0.28311 0.7619 0)
# Probe 275 (0.42874 0.6942 0)
# Probe 276 (0.40661 0.68979 0)
# Probe 277 (0.38931 0.77974 0)
# Probe 278 (0.22066 0.72257 0)
# Probe 279 (0.21235 0.69407 0)
# Probe 280 (0.41921 0.67366 0)
# Probe 281 (0.58999 0.37484 0)
# Probe 282 (0.60744 0.52684 0)
# Probe 283 (0.33731 0.70018 0)
# Probe 284 (0.40015 0.66982 0)
# Probe 285 (0.23155 0.67267 0)
# Probe 286 (0.20398 0.66622 0)
# Probe 287 (0.28791 0.6897 0)
# Probe 288 (0.53747 0.75624 0)
# Probe 289 (0.69899 0.53199 0)
# Probe 290 (0.71721 0.50534 0)
# Probe 291 (0.73254 0.53429 0)
# Probe 292 (0.75212 0.50546 0)
# Probe 293 (0.76783 0.53649 0)
# Probe 294 (0.78728 0.50594 0)
# Probe 295 (0.80443 0.5388 0)
# Probe 296 (0.78405 0.56999 0)
# Probe 297 (0.22427 0.64752 0)
# Probe 298 (0.19974 0.63678 0)
# Probe 299 (0.17616 0.65955 0)
# Probe 300 (0.19155 0.7175 0)
# Probe 301 (0.20197 0.74797 0)
# Probe 302 (0.57823 0.18874 0)
# Probe 303 (0.46182 0.76919 0)
# Probe 304 (0.16878 0.63099 0)
# Probe 305 (0.18838 0.60995 0)
# Probe 306 (0.4106 0.65272 0)
# Probe 307 (0.43308 0.65889 0)
# Probe 308 (0.82222 0.57269 0)
# Probe 309 (0.80081 0.60514 0)
# Probe 310 (0.76931 0.47358 0)
# Probe 311 (0.16115 0.60329 0)
# Probe 312 (0.17986 0.58539 0)
# Probe 313 (0.15429 0.57692 0)
# Probe 314 (0.17374 0.55755 0)
# Probe 315 (0.14793 0.55057 0)
# Probe 316 (0.16608 0.53126 0)
# Probe 317 (0.14058 0.52473 0)
# Probe 318 (0.15985 0.50674 0)
# Probe 319 (0.80682 0.4744 0)
# Probe 320 (0.79006 0.44194 0)
# Probe 321 (0.3924 0.65245 0)
# Probe 322 (0.36597 0.60756 0)
# Probe 323 (0.50134 0.677 0)
# Probe 324 (0.59239 0.54923 0)
# Probe 325 (0.58104 0.52628 0)
# Probe 326 (0.5673 0.54555 0)
# Probe 327 (0.55717 0.52548 0)
# Probe 328 (0.54482 0.54265 0)
# Probe 329 (0.53589 0.52393 0)
# Probe 330 (0.54703 0.50707 0)
# Probe 331 (0.52458 0.54053 0)
# Probe 332 (0.5246 0.50654 0)
# Probe 333 (0.537 0.48979 0)
# Probe 334 (0.51818 0.4886 0)
# Probe 335 (0.52813 0.47357 0)
# Probe 336 (0.5104 0.47356 0)
# Probe 337 (0.51956 0.45835 0)
# Probe 338 (0.53769 0.45824 0)
# Probe 339 (0.52883 0.44217 0)
# Probe 340 (0.51039 0.44204 0)
# Probe 341 (0.5197 0.42628 0)
# Probe 342 (0.5026 0.42549 0)
# Probe 343 (0.51087 0.41053 0)
# Probe 344 (0.49319 0.41056 0)
# Probe 345 (0.50188 0.39509 0)
# Probe 346 (0.48166 0.39624 0)
# Probe 347 (0.49275 0.37969 0)
# Probe 348 (0.47483 0.37963 0)
# Probe 349 (0.48469 0.36453 0)
# Probe 350 (0.46525 0.3637 0)
# Probe 351 (0.47586 0.34799 0)
# Probe 352 (0.45559 0.34741 0)
# Probe 353 (0.38651 0.39796 0)
# Probe 354 (0.46563 0.33065 0)
# Probe 355 (0.44595 0.3309 0)
# Probe 356 (0.43641 0.34725 0)
# Probe 357 (0.42755 0.33162 0)
# Probe 358 (0.43587 0.31449 0)
# Probe 359 (0.41687 0.3153 0)
# Probe 360 (0.35471 0.3901 0)
# Probe 361 (0.42545 0.29706 0)
# Probe 362 (0.4047 0.29786 0)
# Probe 363 (0.39599 0.31965 0)
# Probe 364 (0.3833 0.29957 0)
# Probe 365 (0.39237 0.27989 0)
# Probe 366 (0.37061 0.28125 0)
# Probe 367 (0.36098 0.30196 0)
# Probe 368 (0.3472 0.2842 0)
# Probe 369 (0.32275 0.39446 0)
# Probe 370 (0.35806 0.26186 0)
# Probe 371 (0.33334 0.26455 0)
# Probe 372 (0.32296 0.2878 0)
# Probe 373 (0.27735 0.41934 0)
# Probe 374 (0.30819 0.26774 0)
# Probe 375 (0.29873 0.29147 0)
# Probe 376 (0.28291 0.27046 0)
# Probe 377 (0.27297 0.29515 0)
# Probe 378 (0.25605 0.27312 0)
# Probe 379 (0.24559 0.29971 0)
# Probe 380 (0.31848 0.24363 0)
# Probe 381 (0.30366 0.40203 0)
# Probe 382 (0.26295 0.43544 0)
# Probe 383 (0.25169 0.45334 0)
# Probe 384 (0.22701 0.27718 0)
# Probe 385 (0.21648 0.30487 0)
# Probe 386 (0.23874 0.24867 0)
# Probe 387 (0.20704 0.25296 0)
# Probe 388 (0.2201 0.2222 0)
# Probe 389 (0.23504 0.32596 0)
# Probe 390 (0.20678 0.33192 0)
# Probe 391 (0.28995 0.31517 0)
# Probe 392 (0.22754 0.35386 0)
# Probe 393 (0.19796 0.3582 0)
# Probe 394 (0.18798 0.31026 0)
# Probe 395 (0.41906 0.3482 0)
# Probe 396 (0.55666 0.48994 0)
# Probe 397 (0.54804 0.44196 0)
# Probe 398 (0.2149 0.37839 0)
# Probe 399 (0.18862 0.38349 0)
# Probe 400 (0.53259 0.55862 0)
# Probe 401 (0.51066 0.55538 0)
# Probe 402 (0.52022 0.57371 0)
# Probe 403 (0.50165 0.57166 0)
# Probe 404 (0.50919 0.58888 0)
# Probe 405 (0.49058 0.58666 0)
# Probe 406 (0.50625 0.53794 0)
# Probe 407 (0.18529 0.2269 0)
# Probe 408 (0.19954 0.19315 0)
# Probe 409 (0.23401 0.1917 0)
# Probe 410 (0.1699 0.36282 0)
# Probe 411 (0.56977 0.75978 0)
# Probe 412 (0.55074 0.78725 0)
# Probe 413 (0.5855 0.79048 0)
# Probe 414 (0.56439 0.81999 0)
# Probe 415 (0.60089 0.82382 0)
# Probe 416 (0.62238 0.79262 0)
# Probe 417 (0.63808 0.82612 0)
# Probe 418 (0.66058 0.79487 0)
# Probe 419 (0.67975 0.83693 0)
# Probe 420 (0.70089 0.7984 0)
# Probe 421 (0.20877 0.40415 0)
# Probe 422 (0.17942 0.40791 0)
# Probe 423 (0.19914 0.42914 0)
# Probe 424 (0.45781 0.37885 0)
# Probe 425 (0.42426 0.6398 0)
# Probe 426 (0.44185 0.64154 0)
# Probe 427 (0.33659 0.76779 0)
# Probe 428 (0.14599 0.65283 0)
# Probe 429 (0.50817 0.38105 0)
# Probe 430 (0.16851 0.74247 0)
# Probe 431 (0.18121 0.77611 0)
# Probe 432 (0.13402 0.49868 0)
# Probe 433 (0.48499 0.42607 0)
# Probe 434 (0.4462 0.29568 0)
# Probe 435 (0.43525 0.27686 0)
# Probe 436 (0.48667 0.33107 0)
# Probe 437 (0.49737 0.60395 0)
# Probe 438 (0.68225 0.76204 0)
# Probe 439 (0.72277 0.76367 0)
# Probe 440 (0.74179 0.80026 0)
# Probe 441 (0.76379 0.76563 0)
# Probe 442 (0.7842 0.80277 0)
# Probe 443 (0.80906 0.76029 0)
# Probe 444 (0.74233 0.72945 0)
# Probe 445 (0.23881 0.37685 0)
# Probe 446 (0.20637 0.59079 0)
# Probe 447 (0.50123 0.48714 0)
# Probe 448 (0.82719 0.4422 0)
# Probe 449 (0.80834 0.40826 0)
# Probe 450 (0.49406 0.4735 0)
# Probe 451 (0.43472 0.62556 0)
# Probe 452 (0.48397 0.57062 0)
# Probe 453 (0.47331 0.58361 0)
# Probe 454 (0.52875 0.40987 0)
# Probe 455 (0.83995 0.60769 0)
# Probe 456 (0.18349 0.51306 0)
# Probe 457 (0.53011 0.81667 0)
# Probe 458 (0.54312 0.85035 0)
# Probe 459 (0.50639 0.84694 0)
# Probe 460 (0.76422 0.60052 0)
# Probe 461 (0.81809 0.64134 0)
# Probe 462 (0.16307 0.19848 0)
# Probe 463 (0.17755 0.16248 0)
# Probe 464 (0.82846 0.80462 0)
# Probe 465 (0.85233 0.76811 0)
# Probe 466 (0.38218 0.66621 0)
# Probe 467 (0.37643 0.64949 0)
# Probe 468 (0.84782 0.40897 0)
# Probe 469 (0.82857 0.37432 0)
# Probe 470 (0.79142 0.37249 0)
# Probe 471 (0.80963 0.33973 0)
# Probe 472 (0.77 0.33946 0)
# Probe 473 (0.78159 0.30381 0)
# Probe 474 (0.82878 0.30527 0)
# Probe 475 (0.80818 0.26988 0)
# Probe 476 (0.76578 0.26652 0)
# Probe 477 (0.78815 0.23383 0)
# Probe 478 (0.74614 0.23384 0)
# Probe 479 (0.76746 0.19867 0)
# Probe 480 (0.72568 0.19941 0)
# Probe 481 (0.81023 0.19756 0)
# Probe 482 (0.85128 0.27033 0)
# Probe 483 (0.17006 0.43262 0)
# Probe 484 (0.15161 0.41138 0)
# Probe 485 (0.84347 0.47486 0)
# Probe 486 (0.14729 0.23218 0)
# Probe 487 (0.24829 0.6524 0)
# Probe 488 (0.24216 0.63057 0)
# Probe 489 (0.26217 0.63399 0)
# Probe 490 (0.45195 0.62739 0)
# Probe 491 (0.14394 0.76918 0)
# Probe 492 (0.15606 0.8047 0)
# Probe 493 (0.19527 0.81134 0)
# Probe 494 (0.16911 0.84151 0)
# Probe 495 (0.20884 0.84716 0)
# Probe 496 (0.70562 0.23445 0)
# Probe 497 (0.68501 0.20048 0)
# Probe 498 (0.7046 0.16478 0)
# Probe 499 (0.13235 0.59323 0)
# Probe 500 (0.41691 0.62342 0)
# Probe 501 (0.5499 0.12241 0)
# Probe 502 (0.44384 0.6129 0)
# Probe 503 (0.5398 0.57676 0)
# Probe 504 (0.11226 0.51865 0)
# Probe 505 (0.36523 0.66247 0)
# Probe 506 (0.35988 0.64649 0)
# Probe 507 (0.34879 0.659 0)
# Probe 508 (0.3434 0.64107 0)
# Probe 509 (0.3325 0.6555 0)
# Probe 510 (0.32705 0.6401 0)
# Probe 511 (0.18759 0.45002 0)
# Probe 512 (0.7576 0.8381 0)
# Probe 513 (0.42731 0.36284 0)
# Probe 514 (0.41116 0.36321 0)
# Probe 515 (0.4186 0.37623 0)
# Probe 516 (0.25605 0.6148 0)
# Probe 517 (0.78858 0.16092 0)
# Probe 518 (0.83274 0.16046 0)
# Probe 519 (0.2223 0.42463 0)
# Probe 520 (0.31627 0.65241 0)
# Probe 521 (0.3113 0.63714 0)
# Probe 522 (0.29985 0.64961 0)
# Probe 523 (0.38596 0.63737 0)
# Probe 524 (0.66343 0.16635 0)
# Probe 525 (0.68261 0.12956 0)
# Probe 526 (0.86369 0.57935 0)
# Probe 527 (0.45969 0.64345 0)
# Probe 528 (0.27386 0.6186 0)
# Probe 529 (0.61325 0.47302 0)
# Probe 530 (0.45815 0.27585 0)
# Probe 531 (0.446 0.25533 0)
# Probe 532 (0.46813 0.56893 0)
# Probe 533 (0.47712 0.55688 0)
# Probe 534 (0.45851 0.58027 0)
# Probe 535 (0.10393 0.49047 0)
# Probe 536 (0.1341 0.73516 0)
# Probe 537 (0.70285 0.42857 0)
# Probe 538 (0.85888 0.64419 0)
# Probe 539 (0.51741 0.60668 0)
# Probe 540 (0.50516 0.62269 0)
# Probe 541 (0.60028 0.45096 0)
# Probe 542 (0.64136 0.13185 0)
# Probe 543 (0.23364 0.81731 0)
# Probe 544 (0.24736 0.85254 0)
# Probe 545 (0.6175 0.85565 0)
# Probe 546 (0.86922 0.37535 0)
# Probe 547 (0.48595 0.48615 0)
# Probe 548 (0.49244 0.49929 0)
# Probe 549 (0.47725 0.47418 0)
# Probe 550 (0.48634 0.46067 0)
# Probe 551 (0.1388 0.16635 0)
# Probe 552 (0.27104 0.82267 0)
# Probe 553 (0.28497 0.8571 0)
# Probe 554 (0.3695 0.67891 0)
# Probe 555 (0.18387 0.87933 0)
# Probe 556 (0.14174 0.87292 0)
# Probe 557 (0.40398 0.37615 0)
# Probe 558 (0.39611 0.36404 0)
# Probe 559 (0.07483 0.51556 0)
# Probe 560 (0.52051 0.88201 0)
# Probe 561 (0.48166 0.87709 0)
# Probe 562 (0.46801 0.83861 0)
# Probe 563 (0.44324 0.8713 0)
# Probe 564 (0.30752 0.82849 0)
# Probe 565 (0.32189 0.86232 0)
# Probe 566 (0.46298 0.61216 0)
# Probe 567 (0.34341 0.83357 0)
# Probe 568 (0.36073 0.86721 0)
# Probe 569 (0.71864 0.40109 0)
# Probe 570 (0.70401 0.37355 0)
# Probe 571 (0.83617 0.67681 0)
# Probe 572 (0.38187 0.8389 0)
# Probe 573 (0.57708 0.5708 0)
# Probe 574 (0.41102 0.38804 0)
# Probe 575 (0.42451 0.38887 0)
# Probe 576 (0.10869 0.76418 0)
# Probe 577 (0.15367 0.12954 0)
# Probe 578 (0.19292 0.12365 0)
# Probe 579 (0.71373 0.56106 0)
# Probe 580 (0.11131 0.13428 0)
# Probe 581 (0.14082 0.43881 0)
# Probe 582 (0.12105 0.41552 0)
# Probe 583 (0.35476 0.63129 0)
# Probe 584 (0.85434 0.19763 0)
# Probe 585 (0.72456 0.12765 0)
# Probe 586 (0.7019 0.09076 0)
# Probe 587 (0.38856 0.37843 0)
# Probe 588 (0.38089 0.36525 0)
# Probe 589 (0.38881 0.35104 0)
# Probe 590 (0.37353 0.35187 0)
# Probe 591 (0.36692 0.36628 0)
# Probe 592 (0.35839 0.35391 0)
# Probe 593 (0.35213 0.36749 0)
# Probe 594 (0.34355 0.3555 0)
# Probe 595 (0.33746 0.36875 0)
# Probe 596 (0.3286 0.35661 0)
# Probe 597 (0.33521 0.34229 0)
# Probe 598 (0.32233 0.37242 0)
# Probe 599 (0.31339 0.35818 0)
# Probe 600 (0.30671 0.37225 0)
# Probe 601 (0.29769 0.3592 0)
# Probe 602 (0.29075 0.37393 0)
# Probe 603 (0.28118 0.36015 0)
# Probe 604 (0.36506 0.33704 0)
# Probe 605 (0.27456 0.37568 0)
# Probe 606 (0.87162 0.30613 0)
# Probe 607 (0.89775 0.27199 0)
# Probe 608 (0.87631 0.6809 0)
# Probe 609 (0.32072 0.66749 0)
# Probe 610 (0.26573 0.88815 0)
# Probe 611 (0.28481 0.38951 0)
# Probe 612 (0.26862 0.39082 0)
# Probe 613 (0.87324 0.8083 0)
# Probe 614 (0.84844 0.84662 0)
# Probe 615 (0.8978 0.76944 0)
# Probe 616 (0.87681 0.15939 0)
# Probe 617 (0.81341 0.1239 0)
# Probe 618 (0.5596 0.88578 0)
# Probe 619 (0.53599 0.91891 0)
# Probe 620 (0.42252 0.25683 0)
# Probe 621 (0.4329 0.23327 0)
# Probe 622 (0.40675 0.235 0)
# Probe 623 (0.41825 0.20983 0)
# Probe 624 (0.38926 0.21129 0)
# Probe 625 (0.40258 0.18368 0)
# Probe 626 (0.37036 0.18522 0)
# Probe 627 (0.38587 0.15527 0)
# Probe 628 (0.35063 0.15717 0)
# Probe 629 (0.44703 0.20881 0)
# Probe 630 (0.36706 0.12509 0)
# Probe 631 (0.33018 0.1273 0)
# Probe 632 (0.31449 0.1602 0)
# Probe 633 (0.29235 0.13027 0)
# Probe 634 (0.30897 0.09471 0)
# Probe 635 (0.47601 0.3131 0)
# Probe 636 (0.49758 0.31292 0)
# Probe 637 (0.50875 0.33235 0)
# Probe 638 (0.46252 0.55616 0)
# Probe 639 (0.47006 0.54335 0)
# Probe 640 (0.4708 0.46139 0)
# Probe 641 (0.79429 0.6756 0)
# Probe 642 (0.52357 0.62497 0)
# Probe 643 (0.23421 0.61053 0)
# Probe 644 (0.25108 0.59705 0)
# Probe 645 (0.51897 0.31267 0)
# Probe 646 (0.50693 0.28904 0)
# Probe 647 (0.4166 0.78523 0)
# Probe 648 (0.55708 0.45868 0)
# Probe 649 (0.66766 0.23412 0)
# Probe 650 (0.68647 0.26509 0)
# Probe 651 (0.47934 0.49823 0)
# Probe 652 (0.48471 0.51049 0)
# Probe 653 (0.49783 0.51226 0)
# Probe 654 (0.30415 0.34465 0)
# Probe 655 (0.17941 0.49142 0)
# Probe 656 (0.19962 0.4983 0)
# Probe 657 (0.2039 0.51709 0)
# Probe 658 (0.21684 0.50311 0)
# Probe 659 (0.21384 0.48695 0)
# Probe 660 (0.22096 0.51954 0)
# Probe 661 (0.21078 0.53282 0)
# Probe 662 (0.26964 0.10065 0)
# Probe 663 (0.48968 0.77692 0)
# Probe 664 (0.53728 0.60837 0)
# Probe 665 (0.27039 0.65295 0)
# Probe 666 (0.35724 0.21348 0)
# Probe 667 (0.47934 0.44896 0)
# Probe 668 (0.46531 0.44925 0)
# Probe 669 (0.4878 0.52322 0)
# Probe 670 (0.47515 0.52048 0)
# Probe 671 (0.26427 0.36082 0)
# Probe 672 (0.27155 0.34343 0)
# Probe 673 (0.88871 0.41119 0)
# Probe 674 (0.22764 0.53612 0)
# Probe 675 (0.2165 0.54814 0)
# Probe 676 (0.23173 0.55251 0)
# Probe 677 (0.22171 0.56345 0)
# Probe 678 (0.23632 0.56574 0)
# Probe 679 (0.23704 0.59049 0)
# Probe 680 (0.25261 0.13526 0)
# Probe 681 (0.47566 0.67551 0)
# Probe 682 (0.49176 0.65713 0)
# Probe 683 (0.5673 0.44191 0)
# Probe 684 (0.5581 0.42356 0)
# Probe 685 (0.57813 0.42492 0)
# Probe 686 (0.73543 0.42329 0)
# Probe 687 (0.13711 0.38213 0)
# Probe 688 (0.10078 0.38935 0)
# Probe 689 (0.1121 0.35654 0)
# Probe 690 (0.07659 0.36436 0)
# Probe 691 (0.08992 0.32794 0)
# Probe 692 (0.1251 0.32226 0)
# Probe 693 (0.1045 0.29057 0)
# Probe 694 (0.13689 0.28952 0)
# Probe 695 (0.40229 0.124 0)
# Probe 696 (0.32069 0.62613 0)
# Probe 697 (0.30642 0.62312 0)
# Probe 698 (0.65154 0.26691 0)
# Probe 699 (0.58849 0.47213 0)
# Probe 700 (0.09156 0.54959 0)
# Probe 701 (0.47244 0.25665 0)
# Probe 702 (0.15478 0.68348 0)
# Probe 703 (0.12196 0.67588 0)
# Probe 704 (0.11291 0.64299 0)
# Probe 705 (0.08063 0.66869 0)
# Probe 706 (0.07688 0.63146 0)
# Probe 707 (0.89699 0.64274 0)
# Probe 708 (0.8926 0.84963 0)
# Probe 709 (0.90961 0.37541 0)
# Probe 710 (0.07072 0.47885 0)
# Probe 711 (0.56777 0.40529 0)
# Probe 712 (0.17058 0.09044 0)
# Probe 713 (0.20598 0.56032 0)
# Probe 714 (0.51219 0.65864 0)
# Probe 715 (0.23254 0.39539 0)
# Probe 716 (0.48389 0.54549 0)
# Probe 717 (0.5903 0.40609 0)
# Probe 718 (0.86893 0.88858 0)
# Probe 719 (0.82278 0.88186 0)
# Probe 720 (0.33441 0.89573 0)
# Probe 721 (0.37559 0.90281 0)
# Probe 722 (0.31316 0.69603 0)
# Probe 723 (0.7202 0.45114 0)
# Probe 724 (0.59265 0.50635 0)
# Probe 725 (0.10747 0.44288 0)
# Probe 726 (0.36076 0.70635 0)
# Probe 727 (0.28739 0.06332 0)
# Probe 728 (0.90805 0.19697 0)
# Probe 729 (0.21018 0.44922 0)
# Probe 730 (0.23127 0.44154 0)
# Probe 731 (0.27671 0.40419 0)
# Probe 732 (0.26192 0.40517 0)
# Probe 733 (0.73026 0.37657 0)
# Probe 734 (0.72789 0.3468 0)
# Probe 735 (0.68821 0.34593 0)
# Probe 736 (0.69991 0.31903 0)
# Probe 737 (0.28007 0.63494 0)
# Probe 738 (0.42761 0.83605 0)
# Probe 739 (0.26994 0.60156 0)
# Probe 740 (0.28289 0.60801 0)
# Probe 741 (0.45487 0.69351 0)
# Probe 742 (0.48271 0.61741 0)
# Probe 743 (0.37115 0.63428 0)
# Probe 744 (0.37894 0.62423 0)
# Probe 745 (0.39311 0.62381 0)
# Probe 746 (0.3337 0.62777 0)
# Probe 747 (0.25989 0.78938 0)
# Probe 748 (0.29957 0.38491 0)
# Probe 749 (0.39731 0.38932 0)
# Probe 750 (0.40559 0.39751 0)
# Probe 751 (0.41669 0.40079 0)
# Probe 752 (0.42956 0.4009 0)
# Probe 753 (0.43778 0.39077 0)
# Probe 754 (0.44272 0.40326 0)
# Probe 755 (0.43408 0.41465 0)
# Probe 756 (0.4475 0.41622 0)
# Probe 757 (0.45584 0.40581 0)
# Probe 758 (0.46186 0.41714 0)
# Probe 759 (0.45375 0.43023 0)
# Probe 760 (0.46416 0.43064 0)
# Probe 761 (0.38468 0.70707 0)
# Probe 762 (0.47315 0.4881 0)
# Probe 763 (0.46558 0.47186 0)
# Probe 764 (0.4458 0.36555 0)
# Probe 765 (0.57626 0.91692 0)
# Probe 766 (0.10078 0.69635 0)
# Probe 767 (0.19831 0.48027 0)
# Probe 768 (0.45484 0.56695 0)
# Probe 769 (0.44692 0.57697 0)
# Probe 770 (0.44819 0.59 0)
# Probe 771 (0.43499 0.58347 0)
# Probe 772 (0.25134 0.39248 0)
# Probe 773 (0.24702 0.40807 0)
# Probe 774 (0.53017 0.33502 0)
# Probe 775 (0.51795 0.35227 0)
# Probe 776 (0.5381 0.35777 0)
# Probe 777 (0.62356 0.16768 0)
# Probe 778 (0.59879 0.13362 0)
# Probe 779 (0.34699 0.37977 0)
# Probe 780 (0.33484 0.3818 0)
# Probe 781 (0.61888 0.09785 0)
# Probe 782 (0.42781 0.61191 0)
# Probe 783 (0.41552 0.60896 0)
# Probe 784 (0.81116 0.71099 0)
# Probe 785 (0.25777 0.42082 0)
# Probe 786 (0.24188 0.42242 0)
# Probe 787 (0.45125 0.55624 0)
# Probe 788 (0.45085 0.67151 0)
# Probe 789 (0.36419 0.62109 0)
# Probe 790 (0.46206 0.59457 0)
# Probe 791 (0.47655 0.41235 0)
# Probe 792 (0.26465 0.31978 0)
# Probe 793 (0.51728 0.52449 0)
# Probe 794 (0.41108 0.63673 0)
# Probe 795 (0.45717 0.90801 0)
# Probe 796 (0.26201 0.6774 0)
# Probe 797 (0.47061 0.80028 0)
# Probe 798 (0.57503 0.34671 0)
# Probe 799 (0.47059 0.18676 0)
# Probe 800 (0.51947 0.04417 0)
# Probe 801 (0.57208 0.04693 0)
# Probe 802 (0.49599 0.21255 0)
# Probe 803 (0.22977 0.48976 0)
# Probe 804 (0.22523 0.47601 0)
# Probe 805 (0.21207 0.6126 0)
# Probe 806 (0.47817 0.59973 0)
# Probe 807 (0.22232 0.77832 0)
# Probe 808 (0.05117 0.33821 0)
# Probe 809 (0.31395 0.38445 0)
# Probe 810 (0.73824 0.31388 0)
# Probe 811 (0.29122 0.61858 0)
# Probe 812 (0.55114 0.29961 0)
# Probe 813 (0.61487 0.42444 0)
# Probe 814 (0.36011 0.37851 0)
# Probe 815 (0.36743 0.39056 0)
# Probe 816 (0.31427 0.30911 0)
# Probe 817 (0.33828 0.3085 0)
# Probe 818 (0.35323 0.32148 0)
# Probe 819 (0.2628 0.58724 0)
# Probe 820 (0.25079 0.58217 0)
# Probe 821 (0.26143 0.57536 0)
# Probe 822 (0.23242 0.50571 0)
# Probe 823 (0.58379 0.60259 0)
# Probe 824 (0.15769 0.9152 0)
# Probe 825 (0.11351 0.91019 0)
# Probe 826 (0.0979 0.86615 0)
# Probe 827 (0.55276 0.65214 0)
# Probe 828 (0.29354 0.794 0)
# Probe 829 (0.37654 0.24058 0)
# Probe 830 (0.0982 0.17731 0)
# Probe 831 (0.44781 0.45298 0)
# Probe 832 (0.43052 0.42699 0)
# Probe 833 (0.44266 0.44431 0)
# Probe 834 (0.42288 0.4195 0)
# Probe 835 (0.45772 0.49502 0)
# Probe 836 (0.45724 0.516 0)
# Probe 837 (0.74632 0.08931 0)
# Probe 838 (0.42301 0.58056 0)
# Probe 839 (0.42435 0.59159 0)
# Probe 840 (0.40564 0.59289 0)
# Probe 841 (0.45504 0.5265 0)
# Probe 842 (0.27472 0.96117 0)
# Probe 843 (0.38611 0.09212 0)
# Probe 844 (0.72481 0.04604 0)
# Probe 845 (0.43008 0.57253 0)
# Probe 846 (0.03876 0.77483 0)
# Probe 847 (0.04021 0.22505 0)
# Probe 848 (0.0791 0.25241 0)
# Probe 849 (0.72567 0.26235 0)
# Probe 850 (0.46628 0.51202 0)
# Probe 851 (0.39627 0.59789 0)
# Probe 852 (0.39502 0.6087 0)
# Probe 853 (0.37624 0.60517 0)
# Probe 854 (0.35559 0.60911 0)
# Probe 855 (0.33408 0.60724 0)
# Probe 856 (0.48352 0.27775 0)
# Probe 857 (0.03902 0.68196 0)
# Probe 858 (0.18893 0.53534 0)
# Probe 859 (0.37352 0.31822 0)
# Probe 860 (0.31329 0.60229 0)
# Probe 861 (0.29436 0.59276 0)
# Probe 862 (0.31349 0.39796 0)
# Probe 863 (0.29478 0.40664 0)
# Probe 864 (0.37386 0.37789 0)
# Probe 865 (0.67394 0.05152 0)
# Probe 866 (0.28544 0.58682 0)
# Probe 867 (0.28612 0.41166 0)
# Probe 868 (0.24114 0.49593 0)
# Probe 869 (0.24487 0.47367 0)
# Probe 870 (0.62047 0.4999 0)
# Probe 871 (0.38211 0.33507 0)
# Probe 872 (0.39703 0.33828 0)
# Probe 873 (0.95838 0.47576 0)
# Probe 874 (0.91836 0.4999 0)
# Probe 875 (0.91769 0.54366 0)
# Probe 876 (0.8805 0.52112 0)
# Probe 877 (0.91418 0.449 0)
# Probe 878 (0.95685 0.57108 0)
# Probe 879 (0.91101 0.59551 0)
# Probe 880 (0.96084 0.61276 0)
# Probe 881 (0.15643 0.48225 0)
# Probe 882 (0.43315 0.37753 0)
# Probe 883 (0.3505 0.61894 0)
# Probe 884 (0.45347 0.44357 0)
# Probe 885 (0.64588 0.20094 0)
# Probe 886 (0.49365 0.44843 0)
# Probe 887 (0.52524 0.2667 0)
# Probe 888 (0.37927 0.38832 0)
# Probe 889 (0.26961 0.42602 0)
# Probe 890 (0.25173 0.54646 0)
# Probe 891 (0.24475 0.52617 0)
# Probe 892 (0.03588 0.53106 0)
# Probe 893 (0.1766 0.04238 0)
# Probe 894 (0.53055 0.67384 0)
# Probe 895 (0.37459 0.96114 0)
# Probe 896 (0.42074 0.96207 0)
# Probe 897 (0.17675 0.95783 0)
# Probe 898 (0.32895 0.0573 0)
# Probe 899 (0.67421 0.95781 0)
# Probe 900 (0.65102 0.91714 0)
# Probe 901 (0.69675 0.91562 0)
# Probe 902 (0.72273 0.95725 0)
# Probe 903 (0.74696 0.91632 0)
# Probe 904 (0.71973 0.87224 0)
# Probe 905 (0.30422 0.60977 0)
# Probe 906 (0.56193 0.37029 0)
# Probe 907 (0.53932 0.3793 0)
# Probe 908 (0.32829 0.79737 0)
# Probe 909 (0.36276 0.80323 0)
# Probe 910 (0.87943 0.72555 0)
# Probe 911 (0.92108 0.73468 0)
# Probe 912 (0.95137 0.77349 0)
# Probe 913 (0.94967 0.27384 0)
# Probe 914 (0.77043 0.40802 0)
# Probe 915 (0.60388 0.57643 0)
# Probe 916 (0.56117 0.58742 0)
# Probe 917 (0.04732 0.87047 0)
# Probe 918 (0.04181 0.1242 0)
# Probe 919 (0.24734 0.4632 0)
# Probe 920 (0.23543 0.46596 0)
# Probe 921 (0.25699 0.44425 0)
# Probe 922 (0.21971 0.46349 0)
# Probe 923 (0.67068 0.29789 0)
# Probe 924 (0.95603 0.22346 0)
# Probe 925 (0.91586 0.88491 0)
# Probe 926 (0.07587 0.79083 0)
# Probe 927 (0.64438 0.76085 0)
# Probe 928 (0.66511 0.72801 0)
# Probe 929 (0.7033 0.72845 0)
# Probe 930 (0.72256 0.69437 0)
# Probe 931 (0.68516 0.69538 0)
# Probe 932 (0.70454 0.66383 0)
# Probe 933 (0.74768 0.66015 0)
# Probe 934 (0.65149 0.69401 0)
# Probe 935 (0.72026 0.63234 0)
# Probe 936 (0.41727 0.90237 0)
# Probe 937 (0.6063 0.76105 0)
# Probe 938 (0.46581 0.39307 0)
# Probe 939 (0.77889 0.63653 0)
# Probe 940 (0.82155 0.95909 0)
# Probe 941 (0.82298 0.04272 0)
# Probe 942 (0.84966 0.08895 0)
# Probe 943 (0.90289 0.08103 0)
# Probe 944 (0.31587 0.61373 0)
# Probe 945 (0.12376 0.09114 0)
# Probe 946 (0.9592 0.12725 0)
# Probe 947 (0.49392 0.55758 0)
# Probe 948 (0.67288 0.88022 0)
# Probe 949 (0.9542 0.37556 0)
# Probe 950 (0.39984 0.80881 0)
# Probe 951 (0.41927 0.15423 0)
# Probe 952 (0.33565 0.18804 0)
# Probe 953 (0.30189 0.19522 0)
# Probe 954 (0.27767 0.16409 0)
# Probe 955 (0.29894 0.92171 0)
# Probe 956 (0.20726 0.07962 0)
# Probe 957 (0.25218 0.22007 0)
# Probe 958 (0.20287 0.92016 0)
# Probe 959 (0.24011 0.4536 0)
# Probe 960 (0.40474 0.86714 0)
# Probe 961 (0.25513 0.75747 0)
# Probe 962 (0.34437 0.39151 0)
# Probe 963 (0.5347 0.08628 0)
# Probe 964 (0.57632 0.08855 0)
# Probe 965 (0.33269 0.39258 0)
# Probe 966 (0.4512 0.39241 0)
# Probe 967 (0.67467 0.61002 0)
# Probe 968 (0.46133 0.53425 0)
# Probe 969 (0.17472 0.25791 0)
# Probe 970 (0.12831 0.46788 0)
# Probe 971 (0.2959 0.63487 0)