# Probe 0 (0 0 0)
# Probe 1 (1 0 0)
# Probe 2 (1 1 0)
# Probe 3 (0 1 0)
# Probe 4 (0.37 0.56 0)
# Probe 5 (0.27 0.46 0)
# Probe 6 (0.17 0.56 0)
# Probe 7 (0.27 0.66 0)
# Probe 8 (0.05 0 0)
# Probe 9 (0.1 0 0)
# Probe 10 (0.15 0 0)
# Probe 11 (0.2 0 0)
# Probe 12 (0.25 0 0)
# Probe 13 (0.3 0 0)
# Probe 14 (0.35 0 0)
# Probe 15 (0.4 0 0)
# Probe 16 (0.45 0 0)
# Probe 17 (0.5 0 0)
# Probe 18 (0.55 0 0)
# Probe 19 (0.6 0 0)
# Probe 20 (0.65 0 0)
# Probe 21 (0.7 0 0)
# Probe 22 (0.75 0 0)
# Probe 23 (0.8 0 0)
# Probe 24 (0.85 0 0)
# Probe 25 (0.9 0 0)
# Probe 26 (0.95 0 0)
# Probe 27 (1 0.05 0)
# Probe 28 (1 0.1 0)
# Probe 29 (1 0.15 0)
# Probe 30 (1 0.2 0)
# Probe 31 (1 0.25 0)
# Probe 32 (1 0.3 0)
# Probe 33 (1 0.35 0)
# Probe 34 (1 0.4 0)
# Probe 35 (1 0.45 0)
# Probe 36 (1 0.5 0)
# Probe 37 (1 0.55 0)
# Probe 38 (1 0.6 0)
# Probe 39 (1 0.65 0)
# Probe 40 (1 0.7 0)
# Probe 41 (1 0.75 0)
# Probe 42 (1 0.8 0)
# Probe 43 (1 0.85 0)
# Probe 44 (1 0.9 0)
# Probe 45 (1 0.95 0)
# Probe 46 (0.95 1 0)
# Probe 47 (0.9 1 0)
# Probe 48 (0.85 1 0)
# Probe 49 (0.8 1 0)
# Probe 50 (0.75 1 0)
# Probe 51 (0.7 1 0)
# Probe 52 (0.65 1 0)
# Probe 53 (0.6 1 0)
# Probe 54 (0.55 1 0)
# Probe 55 (0.5 1 0)
# Probe 56 (0.45 1 0)
# Probe 57 (0.4 1 0)
# Probe 58 (0.35 1 0)
# Probe 59 (0.3 1 0)
# Probe 60 (0.25 1 0)
# Probe 61 (0.2 1 0)
# Probe 62 (0.15 1 0)
# Probe 63 (0.1 1 0)
# Probe 64 (0.05 1 0)
# Probe 65 (0 0.95 0)
# Probe 66 (0 0.9 0)
# Probe 67 (0 0.85 0)
# Probe 68 (0 0.8 0)
# Probe 69 (0 0.75 0)
# Probe 70 (0 0.7 0)
# Probe 71 (0 0.65 0)
# Probe 72 (0 0.6 0)
# Probe 73 (0 0.55 0)
# Probe 74 (0 0.5 0)
# Probe 75 (0 0.45 0)
# Probe 76 (0 0.4 0)
# Probe 77 (0 0.35 0)
# Probe 78 (0 0.3 0)
# Probe 79 (0 0.25 0)
# Probe 80 (0 0.2 0)
# Probe 81 (0 0.15 0)
# Probe 82 (0 0.1 0)
# Probe 83 (0 0.05 0)
# Probe 84 (0.36952 0.5502 0)
# Probe 85 (0.36808 0.54049 0)
# Probe 86 (0.36569 0.53097 0)
# Probe 87 (0.36239 0.52173 0)
# Probe 88 (0.35819 0.51286 0)
# Probe 89 (0.35315 0.50444 0)
# Probe 90 (0.3473 0.49656 0)
# Probe 91 (0.34071 0.48929 0)
# Probe 92 (0.33344 0.4827 0)
# Probe 93 (0.32556 0.47685 0)
# Probe 94 (0.31714 0.47181 0)
# Probe 95 (0.30827 0.46761 0)
# Probe 96 (0.29903 0.46431 0)
# Probe 97 (0.28951 0.46192 0)
# Probe 98 (0.2798 0.46048 0)
# Probe 99 (0.2602 0.46048 0)
# Probe 100 (0.25049 0.46192 0)
# Probe 101 (0.24097 0.46431 0)
# Probe 102 (0.23173 0.46761 0)
# Probe 103 (0.22286 0.47181 0)
# Probe 104 (0.21444 0.47685 0)
# Probe 105 (0.20656 0.4827 0)
# Probe 106 (0.19929 0.48929 0)
# Probe 107 (0.1927 0.49656 0)
# Probe 108 (0.18685 0.50444 0)
# Probe 109 (0.18181 0.51286 0)
# Probe 110 (0.17761 0.52173 0)
# Probe 111 (0.17431 0.53097 0)
# Probe 112 (0.17192 0.54049 0)
# Probe 113 (0.17048 0.5502 0)
# Probe 114 (0.17048 0.5698 0)
# Probe 115 (0.17192 0.57951 0)
# Probe 116 (0.17431 0.58903 0)
# Probe 117 (0.17761 0.59827 0)
# Probe 118 (0.18181 0.60714 0)
# Probe 119 (0.18685 0.61556 0)
# Probe 120 (0.1927 0.62344 0)
# Probe 121 (0.19929 0.63071 0)
# Probe 122 (0.20656 0.6373 0)
# Probe 123 (0.21444 0.64315 0)
# Probe 124 (0.22286 0.64819 0)
# Probe 125 (0.23173 0.65239 0)
# Probe 126 (0.24097 0.65569 0)
# Probe 127 (0.25049 0.65808 0)
# Probe 128 (0.2602 0.65952 0)
# Probe 129 (0.2798 0.65952 0)
# Probe 130 (0.28951 0.65808 0)
# Probe 131 (0.29903 0.65569 0)
# Probe 132 (0.30827 0.65239 0)
# Probe 133 (0.31714 0.64819 0)
# Probe 134 (0.32556 0.64315 0)
# Probe 135 (0.33344 0.6373 0)
# Probe 136 (0.34071 0.63071 0)
# Probe 137 (0.3473 0.62344 0)
# Probe 138 (0.35315 0.61556 0)
# Probe 139 (0.35819 0.60714 0)
# Probe 140 (0.36239 0.59827 0)
# Probe 141 (0.36569 0.58903 0)
# Probe 142 (0.36808 0.57951 0)
# Probe 143 (0.36952 0.5698 0)
# Probe 144 (0.95147 0.37552 0)
# Probe 145 (0.62771 0.04104 0)
# Probe 146 (0.96791 0.67446 0)
# Probe 147 (0.62459 0.95957 0)
# Probe 148 (0.47292 0.04217 0)
# Probe 149 (0.32478 0.04774 0)
# Probe 150 (0.4785 0.95299 0)
# Probe 151 (0.95286 0.52778 0)
# Probe 152 (0.0433 0.275 0)
# Probe 153 (0.32209 0.9629 0)
# Probe 154 (0.77269 0.04369 0)
# Probe 155 (0.77204 0.95461 0)
# Probe 156 (0.17701 0.61574 0)
# Probe 157 (0.17688 0.50409 0)
# Probe 158 (0.04243 0.7704 0)
# Probe 159 (0.16487 0.53367 0)
# Probe 160 (0.16327 0.58576 0)
# Probe 161 (0.9567 0.225 0)
# Probe 162 (0.041 0.37704 0)
# Probe 163 (0.17739 0.04265 0)
# Probe 164 (0.18909 0.48626 0)
# Probe 165 (0.18991 0.63259 0)
# Probe 166 (0.16026 0.55429 0)
# Probe 167 (0.17466 0.96206 0)
# Probe 168 (0.95514 0.82961 0)
# Probe 169 (0.03771 0.17297 0)
# Probe 170 (0.04509 0.67982 0)
# Probe 171 (0.87494 0.04328 0)
# Probe 172 (0.04129 0.47859 0)
# Probe 173 (0.0419 0.57773 0)
# Probe 174 (0.03568 0.8838 0)
# Probe 175 (0.87164 0.95407 0)
# Probe 176 (0.95687 0.12999 0)
# Probe 177 (0.04729 0.07475 0)
# Probe 178 (0.07701 0.95095 0)
# Probe 179 (0.96143 0.9244 0)
# Probe 180 (0.04387 0.52715 0)
# Probe 181 (0.07617 0.49853 0)
# Probe 182 (0.07827 0.46484 0)
# Probe 183 (0.10733 0.48212 0)
# Probe 184 (0.10819 0.45399 0)
# Probe 185 (0.10489 0.51228 0)
# Probe 186 (0.13082 0.4675 0)
# Probe 187 (0.13211 0.44249 0)
# Probe 188 (0.1512 0.45564 0)
# Probe 189 (0.15406 0.43291 0)
# Probe 190 (0.21413 0.46736 0)
# Probe 191 (0.13494 0.4179 0)
# Probe 192 (0.15789 0.40885 0)
# Probe 193 (0.1374 0.3922 0)
# Probe 194 (0.16182 0.38258 0)
# Probe 195 (0.17981 0.39981 0)
# Probe 196 (0.18602 0.37381 0)
# Probe 197 (0.25421 0.45259 0)
# Probe 198 (0.16585 0.35629 0)
# Probe 199 (0.1915 0.34798 0)
# Probe 200 (0.21284 0.36805 0)
# Probe 201 (0.21701 0.34053 0)
# Probe 202 (0.23664 0.35726 0)
# Probe 203 (0.24171 0.33108 0)
# Probe 204 (0.26173 0.35294 0)
# Probe 205 (0.26623 0.32405 0)
# Probe 206 (0.28411 0.34206 0)
# Probe 207 (0.28961 0.31742 0)
# Probe 208 (0.30722 0.33274 0)
# Probe 209 (0.31308 0.30967 0)
# Probe 210 (0.33057 0.32532 0)
# Probe 211 (0.31663 0.46193 0)
# Probe 212 (0.33704 0.30179 0)
# Probe 213 (0.35557 0.31961 0)
# Probe 214 (0.36213 0.29381 0)
# Probe 215 (0.3814 0.31213 0)
# Probe 216 (0.29534 0.2945 0)
# Probe 217 (0.22238 0.31355 0)
# Probe 218 (0.37557 0.34013 0)
# Probe 219 (0.40037 0.33055 0)
# Probe 220 (0.4073 0.30463 0)
# Probe 221 (0.42666 0.32375 0)
# Probe 222 (0.42038 0.349 0)
# Probe 223 (0.44569 0.34318 0)
# Probe 224 (0.35192 0.48746 0)
# Probe 225 (0.4385 0.36897 0)
# Probe 226 (0.46418 0.36216 0)
# Probe 227 (0.45754 0.38752 0)
# Probe 228 (0.48254 0.38089 0)
# Probe 229 (0.47608 0.40479 0)
# Probe 230 (0.50076 0.39926 0)
# Probe 231 (0.49156 0.42669 0)
# Probe 232 (0.5187 0.41829 0)
# Probe 233 (0.51195 0.44476 0)
# Probe 234 (0.5378 0.43709 0)
# Probe 235 (0.53074 0.46237 0)
# Probe 236 (0.54444 0.40997 0)
# Probe 237 (0.55731 0.45591 0)
# Probe 238 (0.54686 0.48616 0)
# Probe 239 (0.37792 0.54374 0)
# Probe 240 (0.57736 0.47631 0)
# Probe 241 (0.56958 0.50482 0)
# Probe 242 (0.36927 0.51391 0)
# Probe 243 (0.47174 0.33584 0)
# Probe 244 (0.59876 0.4975 0)
# Probe 245 (0.59022 0.52685 0)
# Probe 246 (0.60702 0.46747 0)
# Probe 247 (0.56281 0.5338 0)
# Probe 248 (0.58251 0.5558 0)
# Probe 249 (0.61199 0.54964 0)
# Probe 250 (0.60237 0.58012 0)
# Probe 251 (0.57405 0.58394 0)
# Probe 252 (0.37636 0.57337 0)
# Probe 253 (0.59417 0.61091 0)
# Probe 254 (0.55874 0.61166 0)
# Probe 255 (0.6257 0.6039 0)
# Probe 256 (0.58182 0.64091 0)
# Probe 257 (0.55129 0.64579 0)
# Probe 258 (0.57204 0.67104 0)
# Probe 259 (0.54256 0.67415 0)
# Probe 260 (0.36783 0.60661 0)
# Probe 261 (0.2859 0.45279 0)
# Probe 262 (0.50757 0.46946 0)
# Probe 263 (0.56231 0.70123 0)
# Probe 264 (0.59415 0.69551 0)
# Probe 265 (0.52723 0.70228 0)
# Probe 266 (0.52906 0.62181 0)
# Probe 267 (0.45086 0.41217 0)
# Probe 268 (0.33446 0.47307 0)
# Probe 269 (0.55145 0.73194 0)
# Probe 270 (0.51914 0.73812 0)
# Probe 271 (0.49598 0.71435 0)
# Probe 272 (0.3515 0.63389 0)
# Probe 273 (0.48763 0.74481 0)
# Probe 274 (0.46649 0.72202 0)
# Probe 275 (0.45718 0.75029 0)
# Probe 276 (0.33394 0.64702 0)
# Probe 277 (0.4382 0.72809 0)
# Probe 278 (0.43013 0.75641 0)
# Probe 279 (0.44769 0.70334 0)
# Probe 280 (0.40983 0.73037 0)
# Probe 281 (0.40235 0.76114 0)
# Probe 282 (0.30651 0.66204 0)
# Probe 283 (0.38184 0.73616 0)
# Probe 284 (0.37449 0.76395 0)
# Probe 285 (0.35721 0.74506 0)
# Probe 286 (0.34888 0.76819 0)
# Probe 287 (0.24345 0.66527 0)
# Probe 288 (0.27429 0.66885 0)
# Probe 289 (0.22293 0.65845 0)
# Probe 290 (0.33288 0.75037 0)
# Probe 291 (0.32421 0.77318 0)
# Probe 292 (0.30727 0.75157 0)
# Probe 293 (0.29971 0.77824 0)
# Probe 294 (0.28281 0.75977 0)
# Probe 295 (0.27614 0.78519 0)
# Probe 296 (0.25901 0.76541 0)
# Probe 297 (0.39309 0.78787 0)
# Probe 298 (0.25039 0.79178 0)
# Probe 299 (0.23277 0.76574 0)
# Probe 300 (0.54142 0.76494 0)
# Probe 301 (0.305 0.35506 0)
# Probe 302 (0.22117 0.79572 0)
# Probe 303 (0.39142 0.71517 0)
# Probe 304 (0.20247 0.77292 0)
# Probe 305 (0.24041 0.82166 0)
# Probe 306 (0.41751 0.37329 0)
# Probe 307 (0.32074 0.79474 0)
# Probe 308 (0.19164 0.80219 0)
# Probe 309 (0.43438 0.29662 0)
# Probe 310 (0.17098 0.32861 0)
# Probe 311 (0.25215 0.37572 0)
# Probe 312 (0.4138 0.2765 0)
# Probe 313 (0.44278 0.26762 0)
# Probe 314 (0.42061 0.24615 0)
# Probe 315 (0.45115 0.23701 0)
# Probe 316 (0.42728 0.21415 0)
# Probe 317 (0.45982 0.2044 0)
# Probe 318 (0.4844 0.22846 0)
# Probe 319 (0.49352 0.19497 0)
# Probe 320 (0.51899 0.22033 0)
# Probe 321 (0.39161 0.22475 0)
# Probe 322 (0.40232 0.19097 0)
# Probe 323 (0.36638 0.19939 0)
# Probe 324 (0.52909 0.18571 0)
# Probe 325 (0.55503 0.21132 0)
# Probe 326 (0.54579 0.24788 0)
# Probe 327 (0.58144 0.23867 0)
# Probe 328 (0.59152 0.20183 0)
# Probe 329 (0.61774 0.2295 0)
# Probe 330 (0.60722 0.26609 0)
# Probe 331 (0.64387 0.25733 0)
# Probe 332 (0.63246 0.29378 0)
# Probe 333 (0.66984 0.28577 0)
# Probe 334 (0.68263 0.24909 0)
# Probe 335 (0.70843 0.27713 0)
# Probe 336 (0.69618 0.31507 0)
# Probe 337 (0.7352 0.30689 0)
# Probe 338 (0.72269 0.34317 0)
# Probe 339 (0.74937 0.26948 0)
# Probe 340 (0.76234 0.33656 0)
# Probe 341 (0.74429 0.37948 0)
# Probe 342 (0.62927 0.19217 0)
# Probe 343 (0.62942 0.48998 0)
# Probe 344 (0.47719 0.77479 0)
# Probe 345 (0.21129 0.74598 0)
# Probe 346 (0.18425 0.75103 0)
# Probe 347 (0.33956 0.72773 0)
# Probe 348 (0.57529 0.75805 0)
# Probe 349 (0.56407 0.79263 0)
# Probe 350 (0.60097 0.7844 0)
# Probe 351 (0.63799 0.45857 0)
# Probe 352 (0.66158 0.48213 0)
# Probe 353 (0.78887 0.36745 0)
# Probe 354 (0.77587 0.40896 0)
# Probe 355 (0.80143 0.3262 0)
# Probe 356 (0.19336 0.7222 0)
# Probe 357 (0.16774 0.72977 0)
# Probe 358 (0.26824 0.74398 0)
# Probe 359 (0.50808 0.37412 0)
# Probe 360 (0.17453 0.70446 0)
# Probe 361 (0.15429 0.75646 0)
# Probe 362 (0.15063 0.70959 0)
# Probe 363 (0.81722 0.39787 0)
# Probe 364 (0.80426 0.43707 0)
# Probe 365 (0.21794 0.72133 0)
# Probe 366 (0.5892 0.82074 0)
# Probe 367 (0.62696 0.81267 0)
# Probe 368 (0.6386 0.77537 0)
# Probe 369 (0.6656 0.80447 0)
# Probe 370 (0.67757 0.76564 0)
# Probe 371 (0.70661 0.79683 0)
# Probe 372 (0.7177 0.75608 0)
# Probe 373 (0.7473 0.78817 0)
# Probe 374 (0.7579 0.74655 0)
# Probe 375 (0.7295 0.71605 0)
# Probe 376 (0.76944 0.70649 0)
# Probe 377 (0.74018 0.67679 0)
# Probe 378 (0.78099 0.66688 0)
# Probe 379 (0.75268 0.63715 0)
# Probe 380 (0.79262 0.62757 0)
# Probe 381 (0.76465 0.59759 0)
# Probe 382 (0.79447 0.73635 0)
# Probe 383 (0.80437 0.58821 0)
# Probe 384 (0.5512 0.82846 0)
# Probe 385 (0.69322 0.83752 0)
# Probe 386 (0.16036 0.68515 0)
# Probe 387 (0.20529 0.64725 0)
# Probe 388 (0.59653 0.30187 0)
# Probe 389 (0.62094 0.32903 0)
# Probe 390 (0.14195 0.33719 0)
# Probe 391 (0.14793 0.30725 0)
# Probe 392 (0.37675 0.16591 0)
# Probe 393 (0.34046 0.17686 0)
# Probe 394 (0.84563 0.42808 0)
# Probe 395 (0.77614 0.55864 0)
# Probe 396 (0.73701 0.56803 0)
# Probe 397 (0.81621 0.54841 0)
# Probe 398 (0.84522 0.57891 0)
# Probe 399 (0.47232 0.1625 0)
# Probe 400 (0.7479 0.52992 0)
# Probe 401 (0.8211 0.65971 0)
# Probe 402 (0.60171 0.16336 0)
# Probe 403 (0.64134 0.15414 0)
# Probe 404 (0.67067 0.449 0)
# Probe 405 (0.69945 0.68749 0)
# Probe 406 (0.34212 0.27553 0)
# Probe 407 (0.61366 0.43809 0)
# Probe 408 (0.1709 0.44743 0)
# Probe 409 (0.1344 0.68971 0)
# Probe 410 (0.14498 0.6652 0)
# Probe 411 (0.12847 0.71275 0)
# Probe 412 (0.58619 0.33588 0)
# Probe 413 (0.57715 0.858 0)
# Probe 414 (0.53808 0.86533 0)
# Probe 415 (0.85449 0.53819 0)
# Probe 416 (0.35 0.14189 0)
# Probe 417 (0.31325 0.15181 0)
# Probe 418 (0.30483 0.18882 0)
# Probe 419 (0.27714 0.16384 0)
# Probe 420 (0.26982 0.20041 0)
# Probe 421 (0.24157 0.17576 0)
# Probe 422 (0.23433 0.2123 0)
# Probe 423 (0.206 0.18781 0)
# Probe 424 (0.38877 0.13009 0)
# Probe 425 (0.24838 0.13585 0)
# Probe 426 (0.19852 0.22433 0)
# Probe 427 (0.16888 0.19964 0)
# Probe 428 (0.17689 0.1605 0)
# Probe 429 (0.11797 0.66973 0)
# Probe 430 (0.12689 0.64478 0)
# Probe 431 (0.85983 0.38804 0)
# Probe 432 (0.18435 0.68206 0)
# Probe 433 (0.76417 0.44948 0)
# Probe 434 (0.56271 0.31056 0)
# Probe 435 (0.11668 0.31612 0)
# Probe 436 (0.12246 0.28442 0)
# Probe 437 (0.15161 0.4765 0)
# Probe 438 (0.11206 0.40264 0)
# Probe 439 (0.68198 0.34913 0)
# Probe 440 (0.60905 0.362 0)
# Probe 441 (0.10134 0.64922 0)
# Probe 442 (0.11123 0.62507 0)
# Probe 443 (0.13805 0.62219 0)
# Probe 444 (0.12153 0.60327 0)
# Probe 445 (0.69496 0.47426 0)
# Probe 446 (0.29576 0.22216 0)
# Probe 447 (0.71063 0.53909 0)
# Probe 448 (0.69953 0.57613 0)
# Probe 449 (0.13774 0.17314 0)
# Probe 450 (0.1462 0.13147 0)
# Probe 451 (0.08859 0.62871 0)
# Probe 452 (0.56547 0.895 0)
# Probe 453 (0.88805 0.41962 0)
# Probe 454 (0.88824 0.56576 0)
# Probe 455 (0.228 0.24738 0)
# Probe 456 (0.51261 0.83616 0)
# Probe 457 (0.49897 0.87222 0)
# Probe 458 (0.47398 0.84337 0)
# Probe 459 (0.46065 0.87881 0)
# Probe 460 (0.43632 0.84997 0)
# Probe 461 (0.42317 0.88578 0)
# Probe 462 (0.39885 0.85698 0)
# Probe 463 (0.38565 0.89199 0)
# Probe 464 (0.36154 0.8639 0)
# Probe 465 (0.64964 0.73736 0)
# Probe 466 (0.46315 0.28925 0)
# Probe 467 (0.87462 0.61104 0)
# Probe 468 (0.66941 0.18349 0)
# Probe 469 (0.68231 0.14391 0)
# Probe 470 (0.71171 0.17388 0)
# Probe 471 (0.72425 0.13231 0)
# Probe 472 (0.75498 0.16458 0)
# Probe 473 (0.69085 0.10572 0)
# Probe 474 (0.60527 0.88806 0)
# Probe 475 (0.19302 0.26595 0)
# Probe 476 (0.13191 0.2126 0)
# Probe 477 (0.61647 0.11785 0)
# Probe 478 (0.57416 0.13396 0)
# Probe 479 (0.65193 0.51507 0)
# Probe 480 (0.79294 0.4764 0)
# Probe 481 (0.87529 0.46053 0)
# Probe 482 (0.77224 0.12456 0)
# Probe 483 (0.79994 0.1546 0)
# Probe 484 (0.78686 0.19763 0)
# Probe 485 (0.83054 0.18885 0)
# Probe 486 (0.84525 0.14432 0)
# Probe 487 (0.81802 0.23159 0)
# Probe 488 (0.86167 0.22276 0)
# Probe 489 (0.84918 0.26563 0)
# Probe 490 (0.18762 0.11966 0)
# Probe 491 (0.9177 0.44967 0)
# Probe 492 (0.70419 0.43901 0)
# Probe 493 (0.9178 0.60151 0)
# Probe 494 (0.40699 0.92246 0)
# Probe 495 (0.55252 0.34357 0)
# Probe 496 (0.53023 0.3183 0)
# Probe 497 (0.11381 0.37413 0)
# Probe 498 (0.58043 0.08898 0)
# Probe 499 (0.5404 0.1082 0)
# Probe 500 (0.68449 0.41244 0)
# Probe 501 (0.32636 0.11187 0)
# Probe 502 (0.05298 0.43958 0)
# Probe 503 (0.36776 0.26676 0)
# Probe 504 (0.3438 0.24452 0)
# Probe 505 (0.14424 0.60048 0)
# Probe 506 (0.12988 0.58322 0)
# Probe 507 (0.10809 0.58464 0)
# Probe 508 (0.11767 0.56381 0)
# Probe 509 (0.09354 0.56533 0)
# Probe 510 (0.89243 0.25734 0)
# Probe 511 (0.8806 0.2998 0)
# Probe 512 (0.92294 0.29086 0)
# Probe 513 (0.10647 0.14057 0)
# Probe 514 (0.11651 0.10601 0)
# Probe 515 (0.34809 0.89826 0)
# Probe 516 (0.32399 0.87056 0)
# Probe 517 (0.15359 0.61454 0)
# Probe 518 (0.15063 0.64256 0)
# Probe 519 (0.16351 0.65614 0)
# Probe 520 (0.44864 0.81449 0)
# Probe 521 (0.37363 0.83122 0)
# Probe 522 (0.2061 0.70225 0)
# Probe 523 (0.227 0.69893 0)
# Probe 524 (0.21399 0.68583 0)
# Probe 525 (0.23873 0.71573 0)
# Probe 526 (0.24565 0.69813 0)
# Probe 527 (0.25642 0.71091 0)
# Probe 528 (0.26124 0.69467 0)
# Probe 529 (0.27418 0.70661 0)
# Probe 530 (0.27706 0.69144 0)
# Probe 531 (0.28884 0.70249 0)
# Probe 532 (0.29219 0.68635 0)
# Probe 533 (0.30354 0.69881 0)
# Probe 534 (0.29916 0.71135 0)
# Probe 535 (0.3082 0.68234 0)
# Probe 536 (0.31864 0.69514 0)
# Probe 537 (0.32299 0.6806 0)
# Probe 538 (0.33367 0.69188 0)
# Probe 539 (0.33833 0.67695 0)
# Probe 540 (0.34907 0.68847 0)
# Probe 541 (0.35386 0.67305 0)
# Probe 542 (0.36495 0.68495 0)
# Probe 543 (0.36986 0.66886 0)
# Probe 544 (0.38154 0.68134 0)
# Probe 545 (0.38658 0.66445 0)
# Probe 546 (0.39868 0.67749 0)
# Probe 547 (0.40363 0.65998 0)
# Probe 548 (0.38961 0.64833 0)
# Probe 549 (0.4072 0.64181 0)
# Probe 550 (0.42123 0.65474 0)
# Probe 551 (0.42621 0.63698 0)
# Probe 552 (0.41419 0.62318 0)
# Probe 553 (0.43147 0.61866 0)
# Probe 554 (0.4443 0.63132 0)
# Probe 555 (0.4477 0.61314 0)
# Probe 556 (0.43487 0.60047 0)
# Probe 557 (0.45372 0.59449 0)
# Probe 558 (0.4369 0.58173 0)
# Probe 559 (0.45405 0.57483 0)
# Probe 560 (0.43698 0.56282 0)
# Probe 561 (0.45708 0.55581 0)
# Probe 562 (0.44198 0.54425 0)
# Probe 563 (0.47291 0.56789 0)
# Probe 564 (0.47656 0.54785 0)
# Probe 565 (0.42488 0.54933 0)
# Probe 566 (0.42824 0.53311 0)
# Probe 567 (0.44469 0.5261 0)
# Probe 568 (0.43034 0.51537 0)
# Probe 569 (0.44671 0.50825 0)
# Probe 570 (0.43223 0.49752 0)
# Probe 571 (0.41705 0.5073 0)
# Probe 572 (0.41558 0.48945 0)
# Probe 573 (0.4338 0.47996 0)
# Probe 574 (0.41883 0.46983 0)
# Probe 575 (0.40248 0.4773 0)
# Probe 576 (0.40437 0.46006 0)
# Probe 577 (0.38923 0.46753 0)
# Probe 578 (0.39043 0.45101 0)
# Probe 579 (0.37553 0.45876 0)
# Probe 580 (0.37681 0.44219 0)
# Probe 581 (0.39174 0.4342 0)
# Probe 582 (0.37716 0.42511 0)
# Probe 583 (0.36167 0.43362 0)
# Probe 584 (0.36237 0.4161 0)
# Probe 585 (0.34752 0.42441 0)
# Probe 586 (0.34791 0.40745 0)
# Probe 587 (0.33383 0.41736 0)
# Probe 588 (0.49329 0.56163 0)
# Probe 589 (0.41896 0.58882 0)
# Probe 590 (0.49724 0.53945 0)
# Probe 591 (0.36345 0.39794 0)
# Probe 592 (0.46317 0.62609 0)
# Probe 593 (0.34768 0.38868 0)
# Probe 594 (0.38746 0.48303 0)
# Probe 595 (0.48866 0.58376 0)
# Probe 596 (0.45944 0.64633 0)
# Probe 597 (0.41284 0.53965 0)
# Probe 598 (0.40975 0.55396 0)
# Probe 599 (0.43574 0.46099 0)
# Probe 600 (0.34741 0.44091 0)
# Probe 601 (0.45181 0.47209 0)
# Probe 602 (0.51155 0.57636 0)
# Probe 603 (0.39319 0.4169 0)
# Probe 604 (0.40801 0.42599 0)
# Probe 605 (0.48038 0.63943 0)
# Probe 606 (0.47492 0.66791 0)
# Probe 607 (0.45348 0.45223 0)
# Probe 608 (0.36026 0.70372 0)
# Probe 609 (0.35861 0.6575 0)
# Probe 610 (0.36433 0.37848 0)
# Probe 611 (0.34688 0.36776 0)
# Probe 612 (0.47954 0.52707 0)
# Probe 613 (0.50043 0.51677 0)
# Probe 614 (0.48028 0.50289 0)
# Probe 615 (0.32818 0.66534 0)
# Probe 616 (0.38005 0.38922 0)
# Probe 617 (0.39883 0.54638 0)
# Probe 618 (0.39834 0.53183 0)
# Probe 619 (0.39634 0.5597 0)
# Probe 620 (0.49905 0.65493 0)
# Probe 621 (0.32976 0.38055 0)
# Probe 622 (0.43713 0.44182 0)
# Probe 623 (0.4084 0.56844 0)
# Probe 624 (0.52008 0.52899 0)
# Probe 625 (0.41223 0.40798 0)
# Probe 626 (0.48455 0.61686 0)
# Probe 627 (0.47026 0.46392 0)
# Probe 628 (0.12503 0.49971 0)
# Probe 629 (0.12693 0.5229 0)
# Probe 630 (0.14675 0.51095 0)
# Probe 631 (0.14 0.56331 0)
# Probe 632 (0.25017 0.68215 0)
# Probe 633 (0.31071 0.90644 0)
# Probe 634 (0.28594 0.87755 0)
# Probe 635 (0.2724 0.91393 0)
# Probe 636 (0.24685 0.88428 0)
# Probe 637 (0.23296 0.92177 0)
# Probe 638 (0.2068 0.88944 0)
# Probe 639 (0.2989 0.8419 0)
# Probe 640 (0.38208 0.36784 0)
# Probe 641 (0.07871 0.58282 0)
# Probe 642 (0.3947 0.57315 0)
# Probe 643 (0.16771 0.63969 0)
# Probe 644 (0.17935 0.65115 0)
# Probe 645 (0.0862 0.6762 0)
# Probe 646 (0.08132 0.53073 0)
# Probe 647 (0.22732 0.68353 0)
# Probe 648 (0.16986 0.4689 0)
# Probe 649 (0.18564 0.45882 0)
# Probe 650 (0.18914 0.44219 0)
# Probe 651 (0.23357 0.45768 0)
# Probe 652 (0.16515 0.48686 0)
# Probe 653 (0.20166 0.45383 0)
# Probe 654 (0.20514 0.43791 0)
# Probe 655 (0.21568 0.44856 0)
# Probe 656 (0.22199 0.43535 0)
# Probe 657 (0.20865 0.42239 0)
# Probe 658 (0.22527 0.41761 0)
# Probe 659 (0.23715 0.42918 0)
# Probe 660 (0.24141 0.41329 0)
# Probe 661 (0.25278 0.42494 0)
# Probe 662 (0.25749 0.40947 0)
# Probe 663 (0.26837 0.42136 0)
# Probe 664 (0.2731 0.40629 0)
# Probe 665 (0.28416 0.41802 0)
# Probe 666 (0.28885 0.40261 0)
# Probe 667 (0.29978 0.41474 0)
# Probe 668 (0.29359 0.43161 0)
# Probe 669 (0.23041 0.39916 0)
# Probe 670 (0.30939 0.42705 0)
# Probe 671 (0.30573 0.44032 0)
# Probe 672 (0.31906 0.43708 0)
# Probe 673 (0.3058 0.39808 0)
# Probe 674 (0.27782 0.39108 0)
# Probe 675 (0.26378 0.43478 0)
# Probe 676 (0.19673 0.46736 0)
# Probe 677 (0.90827 0.49637 0)
# Probe 678 (0.14383 0.53082 0)
# Probe 679 (0.13054 0.54515 0)
# Probe 680 (0.90486 0.64457 0)
# Probe 681 (0.32833 0.35793 0)
# Probe 682 (0.45193 0.66824 0)
# Probe 683 (0.32135 0.7358 0)
# Probe 684 (0.91512 0.33588 0)
# Probe 685 (0.42352 0.707 0)
# Probe 686 (0.43456 0.685 0)
# Probe 687 (0.55194 0.06231 0)
# Probe 688 (0.47403 0.6965 0)
# Probe 689 (0.52291 0.50667 0)
# Probe 690 (0.26496 0.6795 0)
# Probe 691 (0.28338 0.36113 0)
# Probe 692 (0.04052 0.72614 0)
# Probe 693 (0.0768 0.7494 0)
# Probe 694 (0.08274 0.78832 0)
# Probe 695 (0.04657 0.81432 0)
# Probe 696 (0.09114 0.8285 0)
# Probe 697 (0.11976 0.80357 0)
# Probe 698 (0.13011 0.84246 0)
# Probe 699 (0.10143 0.86907 0)
# Probe 700 (0.1391 0.8833 0)
# Probe 701 (0.17286 0.85866 0)
# Probe 702 (0.17678 0.42507 0)
# Probe 703 (0.31874 0.26074 0)
# Probe 704 (0.43379 0.39474 0)
# Probe 705 (0.34346 0.66122 0)
# Probe 706 (0.50566 0.6024 0)
# Probe 707 (0.53165 0.59355 0)
# Probe 708 (0.53495 0.56697 0)
# Probe 709 (0.38449 0.56487 0)
# Probe 710 (0.27904 0.43275 0)
# Probe 711 (0.27166 0.44411 0)
# Probe 712 (0.37536 0.47406 0)
# Probe 713 (0.36251 0.46725 0)
# Probe 714 (0.37432 0.48837 0)
# Probe 715 (0.38513 0.49728 0)
# Probe 716 (0.39859 0.49266 0)
# Probe 717 (0.39363 0.50705 0)
# Probe 718 (0.38107 0.51041 0)
# Probe 719 (0.36311 0.48101 0)
# Probe 720 (0.36332 0.49316 0)
# Probe 721 (0.35235 0.47459 0)
# Probe 722 (0.34988 0.4621 0)
# Probe 723 (0.36003 0.45096 0)
# Probe 724 (0.37268 0.50124 0)
# Probe 725 (0.37792 0.52261 0)
# Probe 726 (0.28974 0.7368 0)
# Probe 727 (0.0448 0.33399 0)
# Probe 728 (0.07999 0.35365 0)
# Probe 729 (0.33807 0.83826 0)
# Probe 730 (0.34738 0.8096 0)
# Probe 731 (0.0877 0.29361 0)
# Probe 732 (0.08978 0.25989 0)
# Probe 733 (0.05494 0.23585 0)
# Probe 734 (0.1862 0.47413 0)
# Probe 735 (0.80371 0.27594 0)
# Probe 736 (0.40328 0.58222 0)
# Probe 737 (0.39166 0.58644 0)
# Probe 738 (0.40161 0.59498 0)
# Probe 739 (0.38615 0.59941 0)
# Probe 740 (0.39697 0.60843 0)
# Probe 741 (0.38501 0.61282 0)
# Probe 742 (0.41057 0.60538 0)
# Probe 743 (0.39346 0.6216 0)
# Probe 744 (0.3811 0.62618 0)
# Probe 745 (0.17817 0.29952 0)
# Probe 746 (0.40771 0.81937 0)
# Probe 747 (0.2985 0.67609 0)
# Probe 748 (0.33198 0.70913 0)
# Probe 749 (0.75668 0.4906 0)
# Probe 750 (0.53783 0.28377 0)
# Probe 751 (0.50707 0.29563 0)
# Probe 752 (0.26149 0.23536 0)
# Probe 753 (0.25435 0.268 0)
# Probe 754 (0.03996 0.61921 0)
# Probe 755 (0.37466 0.65186 0)
# Probe 756 (0.36163 0.64276 0)
# Probe 757 (0.3499 0.64786 0)
# Probe 758 (0.36285 0.62972 0)
# Probe 759 (0.14781 0.57982 0)
# Probe 760 (0.38928 0.5206 0)
# Probe 761 (0.38393 0.53211 0)
# Probe 762 (0.37889 0.58966 0)
# Probe 763 (0.33214 0.21268 0)
# Probe 764 (0.37309 0.9578 0)
# Probe 765 (0.24938 0.43993 0)
# Probe 766 (0.71396 0.40351 0)
# Probe 767 (0.23381 0.73764 0)
# Probe 768 (0.23557 0.44367 0)
# Probe 769 (0.8259 0.50788 0)
# Probe 770 (0.41498 0.5237 0)
# Probe 771 (0.26142 0.84935 0)
# Probe 772 (0.11133 0.91396 0)
# Probe 773 (0.49778 0.68414 0)
# Probe 774 (0.21774 0.85079 0)
# Probe 775 (0.67538 0.54412 0)
# Probe 776 (0.66194 0.5837 0)
# Probe 777 (0.68745 0.61113 0)
# Probe 778 (0.3066 0.45826 0)
# Probe 779 (0.32577 0.46701 0)
# Probe 780 (0.3257 0.45633 0)
# Probe 781 (0.36333 0.61762 0)
# Probe 782 (0.08089 0.38858 0)
# Probe 783 (0.47208 0.44236 0)
# Probe 784 (0.29554 0.37929 0)
# Probe 785 (0.42784 0.41698 0)
# Probe 786 (0.29623 0.45523 0)
# Probe 787 (0.57624 0.36754 0)
# Probe 788 (0.59842 0.39059 0)
# Probe 789 (0.63072 0.38873 0)
# Probe 790 (0.54313 0.37499 0)
# Probe 791 (0.32599 0.6531 0)
# Probe 792 (0.10915 0.54003 0)
# Probe 793 (0.48569 0.90965 0)
# Probe 794 (0.22507 0.28188 0)
# Probe 795 (0.31697 0.65858 0)
# Probe 796 (0.31573 0.67041 0)
# Probe 797 (0.28496 0.66747 0)
# Probe 798 (0.25436 0.6695 0)
# Probe 799 (0.36257 0.72337 0)
# Probe 800 (0.21986 0.67217 0)
# Probe 801 (0.20379 0.67271 0)
# Probe 802 (0.24403 0.45335 0)
# Probe 803 (0.2947 0.44548 0)
# Probe 804 (0.68888 0.72691 0)
# Probe 805 (0.66086 0.69893 0)
# Probe 806 (0.67156 0.66106 0)
# Probe 807 (0.63391 0.6705 0)
# Probe 808 (0.70802 0.64504 0)
# Probe 809 (0.64388 0.35597 0)
# Probe 810 (0.38707 0.55187 0)
# Probe 811 (0.18296 0.62453 0)
# Probe 812 (0.42196 0.786 0)
# Probe 813 (0.23251 0.6629 0)
# Probe 814 (0.21428 0.65296 0)
# Probe 815 (0.18274 0.49506 0)
# Probe 816 (0.28871 0.25521 0)
# Probe 817 (0.22231 0.45997 0)
# Probe 818 (0.14787 0.54737 0)
# Probe 819 (0.34639 0.34429 0)
# Probe 820 (0.33327 0.4344 0)
# Probe 821 (0.27006 0.81524 0)
# Probe 822 (0.08339 0.41746 0)
# Probe 823 (0.52679 0.96156 0)
# Probe 824 (0.57454 0.96135 0)
# Probe 825 (0.42273 0.57216 0)
# Probe 826 (0.19727 0.64028 0)
# Probe 827 (0.17147 0.51324 0)
# Probe 828 (0.16361 0.50274 0)
# Probe 829 (0.91106 0.21062 0)
# Probe 830 (0.1718 0.60653 0)
# Probe 831 (0.67383 0.95767 0)
# Probe 832 (0.64422 0.91419 0)
# Probe 833 (0.69662 0.91539 0)
# Probe 834 (0.72271 0.9568 0)
# Probe 835 (0.74448 0.91333 0)
# Probe 836 (0.79342 0.9105 0)
# Probe 837 (0.76658 0.87101 0)
# Probe 838 (0.81343 0.86788 0)
# Probe 839 (0.78812 0.82336 0)
# Probe 840 (0.83366 0.82617 0)
# Probe 841 (0.86017 0.86481 0)
# Probe 842 (0.87911 0.8218 0)
# Probe 843 (0.85523 0.78432 0)
# Probe 844 (0.8993 0.77941 0)
# Probe 845 (0.87561 0.74217 0)
# Probe 846 (0.91641 0.73207 0)
# Probe 847 (0.91179 0.85865 0)
# Probe 848 (0.88827 0.69171 0)
# Probe 849 (0.84829 0.70317 0)
# Probe 850 (0.88652 0.90482 0)
# Probe 851 (0.82171 0.95276 0)
# Probe 852 (0.71985 0.87307 0)
# Probe 853 (0.74127 0.83259 0)
# Probe 854 (0.79106 0.77306 0)
# Probe 855 (0.3374 0.46151 0)
# Probe 856 (0.16755 0.52342 0)
# Probe 857 (0.37427 0.04275 0)
# Probe 858 (0.4248 0.04221 0)
# Probe 859 (0.44793 0.08191 0)
# Probe 860 (0.49983 0.08302 0)
# Probe 861 (0.50336 0.13083 0)
# Probe 862 (0.39735 0.08786 0)
# Probe 863 (0.35725 0.08511 0)
# Probe 864 (0.27392 0.04276 0)
# Probe 865 (0.22647 0.04174 0)
# Probe 866 (0.25097 0.08908 0)
# Probe 867 (0.65733 0.32191 0)
# Probe 868 (0.16086 0.57498 0)
# Probe 869 (0.16731 0.59652 0)
# Probe 870 (0.67417 0.87622 0)
# Probe 871 (0.65407 0.62793 0)
# Probe 872 (0.31847 0.41153 0)
# Probe 873 (0.67473 0.03897 0)
# Probe 874 (0.72202 0.03977 0)
# Probe 875 (0.95842 0.42783 0)
# Probe 876 (0.50787 0.25939 0)
# Probe 877 (0.33605 0.44846 0)
# Probe 878 (0.16221 0.23701 0)
# Probe 879 (0.04158 0.12552 0)
# Probe 880 (0.61228 0.74864 0)
# Probe 881 (0.95887 0.57924 0)
# Probe 882 (0.20056 0.39166 0)
# Probe 883 (0.7415 0.20464 0)
# Probe 884 (0.78596 0.51864 0)
# Probe 885 (0.26499 0.45257 0)
# Probe 886 (0.12684 0.04031 0)
# Probe 887 (0.94773 0.7765 0)
# Probe 888 (0.52767 0.80027 0)
# Probe 889 (0.2772 0.95852 0)
# Probe 890 (0.95911 0.32121 0)
# Probe 891 (0.72579 0.60585 0)
# Probe 892 (0.16064 0.56499 0)
# Probe 893 (0.16164 0.54384 0)
# Probe 894 (0.57192 0.27481 0)
# Probe 895 (0.82484 0.04321 0)
# Probe 896 (0.84923 0.09261 0)
# Probe 897 (0.90154 0.08331 0)
# Probe 898 (0.92471 0.04223 0)
# Probe 899 (0.95523 0.17915 0)
# Probe 900 (0.91621 0.15746 0)
# Probe 901 (0.95734 0.8755 0)
# Probe 902 (0.65371 0.08098 0)
# Probe 903 (0.79983 0.08574 0)
# Probe 904 (0.95295 0.63229 0)
# Probe 905 (0.1533 0.49294 0)
# Probe 906 (0.20429 0.65834 0)
# Probe 907 (0.37408 0.63673 0)
# Probe 908 (0.23381 0.37909 0)
# Probe 909 (0.25046 0.29975 0)
# Probe 910 (0.95677 0.47593 0)
# Probe 911 (0.46671 0.48454 0)
# Probe 912 (0.12713 0.9583 0)
# Probe 913 (0.87251 0.34491 0)
# Probe 914 (0.07728 0.71039 0)
# Probe 915 (0.47446 0.59818 0)
# Probe 916 (0.42045 0.45194 0)
# Probe 917 (0.48732 0.80911 0)
# Probe 918 (0.90169 0.37969 0)
# Probe 919 (0.11809 0.76444 0)
# Probe 920 (0.56508 0.17489 0)
# Probe 921 (0.24629 0.39549 0)
# Probe 922 (0.50021 0.32531 0)
# Probe 923 (0.32015 0.39521 0)
# Probe 924 (0.4268 0.11898 0)
# Probe 925 (0.28046 0.67827 0)
# Probe 926 (0.64544 0.42017 0)
# Probe 927 (0.19728 0.47887 0)
# Probe 928 (0.15654 0.81551 0)
# Probe 929 (0.46016 0.53668 0)
# Probe 930 (0.52015 0.34713 0)
# Probe 931 (0.58464 0.44784 0)
# Probe 932 (0.83317 0.61911 0)
# Probe 933 (0.1558 0.27425 0)
# Probe 934 (0.83381 0.46805 0)
# Probe 935 (0.10134 0.18312 0)
# Probe 936 (0.68579 0.50899 0)
# Probe 937 (0.41453 0.15496 0)
# Probe 938 (0.73996 0.08545 0)
# Probe 939 (0.26468 0.66825 0)
# Probe 940 (0.65677 0.22056 0)
# Probe 941 (0.72033 0.50107 0)
# Probe 942 (0.15179 0.0842 0)
# Probe 943 (0.34279 0.47952 0)
# Probe 944 (0.84115 0.90914 0)
# Probe 945 (0.07687 0.03667 0)
# Probe 946 (0.61461 0.84919 0)
# Probe 947 (0.65242 0.84236 0)
# Probe 948 (0.6251 0.71138 0)
# Probe 949 (0.29259 0.08212 0)
# Probe 950 (0.6154 0.63647 0)
# Probe 951 (0.47393 0.25921 0)
# Probe 952 (0.03852 0.92395 0)
# Probe 953 (0.45288 0.31735 0)
# Probe 954 (0.52445 0.90079 0)
# Probe 955 (0.95395 0.07931 0)
# Probe 956 (0.86324 0.65203 0)
# Probe 957 (0.9227 0.94952 0)
# Probe 958 (0.39395 0.69471 0)
# Probe 959 (0.1943 0.65098 0)
# Probe 960 (0.18947 0.66417 0)
# Probe 961 (0.62075 0.52048 0)
# Probe 962 (0.56365 0.42761 0)
# Probe 963 (0.28478 0.12243 0)
# Probe 964 (0.50937 0.77032 0)
# Probe 965 (0.49115 0.35424 0)
# Probe 966 (0.50359 0.49331 0)
# Probe 967 (0.31475 0.44987 0)
# Probe 968 (0.80847 0.69897 0)
# Probe 969 (0.36196 0.50374 0)
# Probe 970 (0.69769 0.21176 0)
# Probe 971 (0.82974 0.35519 0)