# Probe 0 (0 0 0)
# Probe 1 (1 0 0)
# Probe 2 (1 1 0)
# Probe 3 (0 1 0)
# Probe 4 (0.5 0.43 0)
# Probe 5 (0.4 0.33 0)
# Probe 6 (0.3 0.43 0)
# Probe 7 (0.4 0.53 0)
# Probe 8 (0.05 0 0)
# Probe 9 (0.1 0 0)
# Probe 10 (0.15 0 0)
# Probe 11 (0.2 0 0)
# Probe 12 (0.25 0 0)
# Probe 13 (0.3 0 0)
# Probe 14 (0.35 0 0)
# Probe 15 (0.4 0 0)
# Probe 16 (0.45 0 0)
# Probe 17 (0.5 0 0)
# Probe 18 (0.55 0 0)
# Probe 19 (0.6 0 0)
# Probe 20 (0.65 0 0)
# Probe 21 (0.7 0 0)
# Probe 22 (0.75 0 0)
# Probe 23 (0.8 0 0)
# Probe 24 (0.85 0 0)
# Probe 25 (0.9 0 0)
# Probe 26 (0.95 0 0)
# Probe 27 (1 0.05 0)
# Probe 28 (1 0.1 0)
# Probe 29 (1 0.15 0)
# Probe 30 (1 0.2 0)
# Probe 31 (1 0.25 0)
# Probe 32 (1 0.3 0)
# Probe 33 (1 0.35 0)
# Probe 34 (1 0.4 0)
# Probe 35 (1 0.45 0)
# Probe 36 (1 0.5 0)
# Probe 37 (1 0.55 0)
# Probe 38 (1 0.6 0)
# Probe 39 (1 0.65 0)
# Probe 40 (1 0.7 0)
# Probe 41 (1 0.75 0)
# Probe 42 (1 0.8 0)
# Probe 43 (1 0.85 0)
# Probe 44 (1 0.9 0)
# Probe 45 (1 0.95 0)
# Probe 46 (0.95 1 0)
# Probe 47 (0.9 1 0)
# Probe 48 (0.85 1 0)
# Probe 49 (0.8 1 0)
# Probe 50 (0.75 1 0)
# Probe 51 (0.7 1 0)
# Probe 52 (0.65 1 0)
# Probe 53 (0.6 1 0)
# Probe 54 (0.55 1 0)
# Probe 55 (0.5 1 0)
# Probe 56 (0.45 1 0)
# Probe 57 (0.4 1 0)
# Probe 58 (0.35 1 0)
# Probe 59 (0.3 1 0)
# Probe 60 (0.25 1 0)
# Probe 61 (0.2 1 0)
# Probe 62 (0.15 1 0)
# Probe 63 (0.1 1 0)
# Probe 64 (0.05 1 0)
# Probe 65 (0 0.95 0)
# Probe 66 (0 0.9 0)
# Probe 67 (0 0.85 0)
# Probe 68 (0 0.8 0)
# Probe 69 (0 0.75 0)
# Probe 70 (0 0.7 0)
# Probe 71 (0 0.65 0)
# Probe 72 (0 0.6 0)
# Probe 73 (0 0.55 0)
# Probe 74 (0 0.5 0)
# Probe 75 (0 0.45 0)
# Probe 76 (0 0.4 0)
# Probe 77 (0 0.35 0)
# Probe 78 (0 0.3 0)
# Probe 79 (0 0.25 0)
# Probe 80 (0 0.2 0)
# Probe 81 (0 0.15 0)
# Probe 82 (0 0.1 0)
# Probe 83 (0 0.05 0)
# Probe 84 (0.49952 0.4202 0)
# Probe 85 (0.49808 0.41049 0)
# Probe 86 (0.49569 0.40097 0)
# Probe 87 (0.49239 0.39173 0)
# Probe 88 (0.48819 0.38286 0)
# Probe 89 (0.48315 0.37444 0)
# Probe 90 (0.4773 0.36656 0)
# Probe 91 (0.47071 0.35929 0)
# Probe 92 (0.46344 0.3527 0)
# Probe 93 (0.45556 0.34685 0)
# Probe 94 (0.44714 0.34181 0)
# Probe 95 (0.43827 0.33761 0)
# Probe 96 (0.42903 0.33431 0)
# Probe 97 (0.41951 0.33192 0)
# Probe 98 (0.4098 0.33048 0)
# Probe 99 (0.3902 0.33048 0)
# Probe 100 (0.38049 0.33192 0)
# Probe 101 (0.37097 0.33431 0)
# Probe 102 (0.36173 0.33761 0)
# Probe 103 (0.35286 0.34181 0)
# Probe 104 (0.34444 0.34685 0)
# Probe 105 (0.33656 0.3527 0)
# Probe 106 (0.32929 0.35929 0)
# Probe 107 (0.3227 0.36656 0)
# Probe 108 (0.31685 0.37444 0)
# Probe 109 (0.31181 0.38286 0)
# Probe 110 (0.30761 0.39173 0)
# Probe 111 (0.30431 0.40097 0)
# Probe 112 (0.30192 0.41049 0)
# Probe 113 (0.30048 0.4202 0)
# Probe 114 (0.30048 0.4398 0)
# Probe 115 (0.30192 0.44951 0)
# Probe 116 (0.30431 0.45903 0)
# Probe 117 (0.30761 0.46827 0)
# Probe 118 (0.31181 0.47714 0)
# Probe 119 (0.31685 0.48556 0)
# Probe 120 (0.3227 0.49344 0)
# Probe 121 (0.32929 0.50071 0)
# Probe 122 (0.33656 0.5073 0)
# Probe 123 (0.34444 0.51315 0)
# Probe 124 (0.35286 0.51819 0)
# Probe 125 (0.36173 0.52239 0)
# Probe 126 (0.37097 0.52569 0)
# Probe 127 (0.38049 0.52808 0)
# Probe 128 (0.3902 0.52952 0)
# Probe 129 (0.4098 0.52952 0)
# Probe 130 (0.41951 0.52808 0)
# Probe 131 (0.42903 0.52569 0)
# Probe 132 (0.43827 0.52239 0)
# Probe 133 (0.44714 0.51819 0)
# Probe 134 (0.45556 0.51315 0)
# Probe 135 (0.46344 0.5073 0)
# Probe 136 (0.47071 0.50071 0)
# Probe 137 (0.4773 0.49344 0)
# Probe 138 (0.48315 0.48556 0)
# Probe 139 (0.48819 0.47714 0)
# Probe 140 (0.49239 0.46827 0)
# Probe 141 (0.49569 0.45903 0)
# Probe 142 (0.49808 0.44951 0)
# Probe 143 (0.49952 0.4398 0)
# Probe 144 (0.95437 0.67921 0)
# Probe 145 (0.62732 0.95576 0)
# Probe 146 (0.9582 0.27373 0)
# Probe 147 (0.9567 0.525 0)
# Probe 148 (0.27501 0.95849 0)
# Probe 149 (0.47466 0.9608 0)
# Probe 150 (0.67603 0.0404 0)
# Probe 151 (0.03668 0.67712 0)
# Probe 152 (0.2271 0.03911 0)
# Probe 153 (0.52482 0.04368 0)
# Probe 154 (0.04186 0.27523 0)
# Probe 155 (0.38053 0.04662 0)
# Probe 156 (0.77468 0.95864 0)
# Probe 157 (0.04134 0.52231 0)
# Probe 158 (0.04089 0.82872 0)
# Probe 159 (0.83399 0.04232 0)
# Probe 160 (0.95539 0.82441 0)
# Probe 161 (0.04404 0.42945 0)
# Probe 162 (0.04266 0.17571 0)
# Probe 163 (0.37289 0.9582 0)
# Probe 164 (0.1764 0.95681 0)
# Probe 165 (0.9583 0.42431 0)
# Probe 166 (0.9573 0.17609 0)
# Probe 167 (0.12651 0.03874 0)
# Probe 168 (0.87458 0.95809 0)
# Probe 169 (0.03763 0.92452 0)
# Probe 170 (0.92485 0.03745 0)
# Probe 171 (0.04225 0.07532 0)
# Probe 172 (0.95154 0.92134 0)
# Probe 173 (0.04129 0.47578 0)
# Probe 174 (0.08111 0.498 0)
# Probe 175 (0.08112 0.54064 0)
# Probe 176 (0.11512 0.51925 0)
# Probe 177 (0.29527 0.45623 0)
# Probe 178 (0.11743 0.55484 0)
# Probe 179 (0.14654 0.53522 0)
# Probe 180 (0.1489 0.56828 0)
# Probe 181 (0.31295 0.49456 0)
# Probe 182 (0.1456 0.50339 0)
# Probe 183 (0.17501 0.55043 0)
# Probe 184 (0.17742 0.58119 0)
# Probe 185 (0.20182 0.5651 0)
# Probe 186 (0.20405 0.59344 0)
# Probe 187 (0.22726 0.57815 0)
# Probe 188 (0.23025 0.6057 0)
# Probe 189 (0.34428 0.52296 0)
# Probe 190 (0.20646 0.62206 0)
# Probe 191 (0.23293 0.63345 0)
# Probe 192 (0.25594 0.61725 0)
# Probe 193 (0.25889 0.64441 0)
# Probe 194 (0.281 0.62812 0)
# Probe 195 (0.28508 0.65533 0)
# Probe 196 (0.37341 0.53502 0)
# Probe 197 (0.26213 0.67254 0)
# Probe 198 (0.28871 0.68325 0)
# Probe 199 (0.31131 0.66584 0)
# Probe 200 (0.31536 0.6933 0)
# Probe 201 (0.33774 0.67549 0)
# Probe 202 (0.3416 0.70348 0)
# Probe 203 (0.36468 0.68551 0)
# Probe 204 (0.40487 0.53864 0)
# Probe 205 (0.36774 0.71352 0)
# Probe 206 (0.39061 0.69602 0)
# Probe 207 (0.39452 0.72457 0)
# Probe 208 (0.41602 0.70615 0)
# Probe 209 (0.26557 0.70206 0)
# Probe 210 (0.41223 0.67926 0)
# Probe 211 (0.43752 0.68796 0)
# Probe 212 (0.43795 0.532 0)
# Probe 213 (0.44205 0.71532 0)
# Probe 214 (0.46382 0.69642 0)
# Probe 215 (0.46896 0.72491 0)
# Probe 216 (0.49043 0.70551 0)
# Probe 217 (0.48514 0.67748 0)
# Probe 218 (0.51144 0.68621 0)
# Probe 219 (0.50584 0.65829 0)
# Probe 220 (0.53257 0.66601 0)
# Probe 221 (0.46571 0.51803 0)
# Probe 222 (0.53863 0.69486 0)
# Probe 223 (0.55941 0.67512 0)
# Probe 224 (0.55266 0.64677 0)
# Probe 225 (0.5798 0.65518 0)
# Probe 226 (0.57335 0.62711 0)
# Probe 227 (0.59979 0.63557 0)
# Probe 228 (0.59354 0.60824 0)
# Probe 229 (0.49296 0.48572 0)
# Probe 230 (0.6201 0.61616 0)
# Probe 231 (0.61379 0.58871 0)
# Probe 232 (0.6276 0.64406 0)
# Probe 233 (0.64071 0.59683 0)
# Probe 234 (0.63414 0.56895 0)
# Probe 235 (0.6617 0.57736 0)
# Probe 236 (0.65465 0.54881 0)
# Probe 237 (0.56695 0.70398 0)
# Probe 238 (0.68143 0.55725 0)
# Probe 239 (0.67356 0.52902 0)
# Probe 240 (0.68987 0.58583 0)
# Probe 241 (0.64731 0.5211 0)
# Probe 242 (0.66739 0.50116 0)
# Probe 243 (0.50734 0.44598 0)
# Probe 244 (0.69757 0.50968 0)
# Probe 245 (0.68806 0.48034 0)
# Probe 246 (0.65597 0.4721 0)
# Probe 247 (0.67782 0.45283 0)
# Probe 248 (0.65169 0.44389 0)
# Probe 249 (0.66977 0.42537 0)
# Probe 250 (0.50616 0.41626 0)
# Probe 251 (0.64395 0.41793 0)
# Probe 252 (0.66339 0.39784 0)
# Probe 253 (0.63619 0.39078 0)
# Probe 254 (0.65816 0.36989 0)
# Probe 255 (0.62851 0.36328 0)
# Probe 256 (0.49384 0.37379 0)
# Probe 257 (0.6506 0.34206 0)
# Probe 258 (0.62033 0.33542 0)
# Probe 259 (0.68784 0.37863 0)
# Probe 260 (0.70331 0.45383 0)
# Probe 261 (0.64071 0.31447 0)
# Probe 262 (0.61073 0.30713 0)
# Probe 263 (0.6318 0.28615 0)
# Probe 264 (0.66151 0.28946 0)
# Probe 265 (0.60135 0.27832 0)
# Probe 266 (0.47289 0.34891 0)
# Probe 267 (0.34625 0.73457 0)
# Probe 268 (0.5682 0.59985 0)
# Probe 269 (0.48033 0.50309 0)
# Probe 270 (0.50204 0.46651 0)
# Probe 271 (0.3017 0.47627 0)
# Probe 272 (0.32732 0.51016 0)
# Probe 273 (0.5022 0.39349 0)
# Probe 274 (0.19986 0.53653 0)
# Probe 275 (0.62179 0.25667 0)
# Probe 276 (0.59271 0.24928 0)
# Probe 277 (0.6277 0.43338 0)
# Probe 278 (0.33571 0.64903 0)
# Probe 279 (0.57151 0.27093 0)
# Probe 280 (0.56314 0.2415 0)
# Probe 281 (0.54376 0.2643 0)
# Probe 282 (0.44791 0.33125 0)
# Probe 283 (0.535 0.23756 0)
# Probe 284 (0.58344 0.21951 0)
# Probe 285 (0.51717 0.25767 0)
# Probe 286 (0.50886 0.23214 0)
# Probe 287 (0.48919 0.2551 0)
# Probe 288 (0.48305 0.22711 0)
# Probe 289 (0.46571 0.24566 0)
# Probe 290 (0.40532 0.32175 0)
# Probe 291 (0.45821 0.22127 0)
# Probe 292 (0.44169 0.23952 0)
# Probe 293 (0.43374 0.21556 0)
# Probe 294 (0.41624 0.23764 0)
# Probe 295 (0.40901 0.21061 0)
# Probe 296 (0.39185 0.22895 0)
# Probe 297 (0.37387 0.32471 0)
# Probe 298 (0.38421 0.20437 0)
# Probe 299 (0.36649 0.22352 0)
# Probe 300 (0.35385 0.33191 0)
# Probe 301 (0.35859 0.19827 0)
# Probe 302 (0.34017 0.21834 0)
# Probe 303 (0.33211 0.19251 0)
# Probe 304 (0.3131 0.21282 0)
# Probe 305 (0.42673 0.19181 0)
# Probe 306 (0.27708 0.60297 0)
# Probe 307 (0.60918 0.38445 0)
# Probe 308 (0.55043 0.28968 0)
# Probe 309 (0.32135 0.24334 0)
# Probe 310 (0.294 0.23545 0)
# Probe 311 (0.32726 0.34973 0)
# Probe 312 (0.28569 0.20814 0)
# Probe 313 (0.26617 0.22979 0)
# Probe 314 (0.30191 0.38336 0)
# Probe 315 (0.29517 0.40354 0)
# Probe 316 (0.29129 0.42451 0)
# Probe 317 (0.2756 0.25696 0)
# Probe 318 (0.24801 0.25201 0)
# Probe 319 (0.26106 0.28159 0)
# Probe 320 (0.23755 0.22255 0)
# Probe 321 (0.23132 0.27452 0)
# Probe 322 (0.24088 0.29989 0)
# Probe 323 (0.21375 0.29551 0)
# Probe 324 (0.22357 0.3203 0)
# Probe 325 (0.19494 0.31617 0)
# Probe 326 (0.20647 0.34205 0)
# Probe 327 (0.48201 0.65064 0)
# Probe 328 (0.50248 0.20674 0)
# Probe 329 (0.17873 0.33815 0)
# Probe 330 (0.18933 0.3639 0)
# Probe 331 (0.6075 0.56207 0)
# Probe 332 (0.18778 0.2913 0)
# Probe 333 (0.49638 0.73493 0)
# Probe 334 (0.47308 0.75479 0)
# Probe 335 (0.50307 0.76608 0)
# Probe 336 (0.47666 0.78705 0)
# Probe 337 (0.51837 0.80037 0)
# Probe 338 (0.7124 0.56114 0)
# Probe 339 (0.72053 0.59506 0)
# Probe 340 (0.74397 0.57285 0)
# Probe 341 (0.75276 0.60562 0)
# Probe 342 (0.77825 0.57908 0)
# Probe 343 (0.78682 0.61569 0)
# Probe 344 (0.76019 0.6407 0)
# Probe 345 (0.79568 0.65185 0)
# Probe 346 (0.76686 0.67789 0)
# Probe 347 (0.80466 0.68928 0)
# Probe 348 (0.77584 0.71577 0)
# Probe 349 (0.21666 0.36799 0)
# Probe 350 (0.20026 0.3882 0)
# Probe 351 (0.20864 0.65095 0)
# Probe 352 (0.49845 0.27544 0)
# Probe 353 (0.37568 0.24438 0)
# Probe 354 (0.73785 0.70407 0)
# Probe 355 (0.74681 0.742 0)
# Probe 356 (0.78383 0.7557 0)
# Probe 357 (0.7094 0.73036 0)
# Probe 358 (0.71772 0.7683 0)
# Probe 359 (0.28795 0.28068 0)
# Probe 360 (0.24799 0.32432 0)
# Probe 361 (0.17466 0.38504 0)
# Probe 362 (0.76848 0.54738 0)
# Probe 363 (0.68035 0.75661 0)
# Probe 364 (0.68873 0.79485 0)
# Probe 365 (0.72822 0.80618 0)
# Probe 366 (0.81286 0.59075 0)
# Probe 367 (0.15232 0.60035 0)
# Probe 368 (0.22466 0.39254 0)
# Probe 369 (0.21015 0.41104 0)
# Probe 370 (0.44916 0.26139 0)
# Probe 371 (0.651 0.78296 0)
# Probe 372 (0.49908 0.63371 0)
# Probe 373 (0.47819 0.62644 0)
# Probe 374 (0.49281 0.61177 0)
# Probe 375 (0.47305 0.60209 0)
# Probe 376 (0.4897 0.59044 0)
# Probe 377 (0.45713 0.62145 0)
# Probe 378 (0.45287 0.59885 0)
# Probe 379 (0.43839 0.61129 0)
# Probe 380 (0.435 0.59018 0)
# Probe 381 (0.42089 0.60388 0)
# Probe 382 (0.44941 0.58138 0)
# Probe 383 (0.37776 0.17834 0)
# Probe 384 (0.41712 0.58629 0)
# Probe 385 (0.40405 0.59773 0)
# Probe 386 (0.48505 0.82198 0)
# Probe 387 (0.44852 0.80879 0)
# Probe 388 (0.51595 0.83257 0)
# Probe 389 (0.23258 0.41359 0)
# Probe 390 (0.21929 0.43126 0)
# Probe 391 (0.19647 0.42959 0)
# Probe 392 (0.24287 0.43272 0)
# Probe 393 (0.22794 0.45083 0)
# Probe 394 (0.40185 0.58081 0)
# Probe 395 (0.38834 0.59146 0)
# Probe 396 (0.39064 0.60938 0)
# Probe 397 (0.37373 0.60267 0)
# Probe 398 (0.37134 0.58451 0)
# Probe 399 (0.35703 0.59549 0)
# Probe 400 (0.35506 0.57737 0)
# Probe 401 (0.65943 0.82157 0)
# Probe 402 (0.34053 0.58857 0)
# Probe 403 (0.338 0.57145 0)
# Probe 404 (0.24793 0.45281 0)
# Probe 405 (0.23587 0.46877 0)
# Probe 406 (0.25682 0.47003 0)
# Probe 407 (0.24352 0.48635 0)
# Probe 408 (0.26096 0.48758 0)
# Probe 409 (0.25046 0.50295 0)
# Probe 410 (0.26995 0.5032 0)
# Probe 411 (0.25774 0.51947 0)
# Probe 412 (0.27638 0.52211 0)
# Probe 413 (0.21533 0.46659 0)
# Probe 414 (0.24514 0.39853 0)
# Probe 415 (0.83332 0.66229 0)
# Probe 416 (0.84318 0.70142 0)
# Probe 417 (0.45617 0.84537 0)
# Probe 418 (0.42031 0.83197 0)
# Probe 419 (0.53054 0.77178 0)
# Probe 420 (0.26475 0.53623 0)
# Probe 421 (0.28289 0.53892 0)
# Probe 422 (0.69653 0.61757 0)
# Probe 423 (0.50749 0.59787 0)
# Probe 424 (0.50269 0.57708 0)
# Probe 425 (0.37595 0.62171 0)
# Probe 426 (0.08747 0.5805 0)
# Probe 427 (0.62133 0.80953 0)
# Probe 428 (0.42507 0.62296 0)
# Probe 429 (0.59302 0.32716 0)
# Probe 430 (0.41355 0.5704 0)
# Probe 431 (0.48615 0.57186 0)
# Probe 432 (0.49816 0.55941 0)
# Probe 433 (0.51523 0.56431 0)
# Probe 434 (0.51053 0.54684 0)
# Probe 435 (0.52749 0.55126 0)
# Probe 436 (0.52256 0.53439 0)
# Probe 437 (0.53969 0.53839 0)
# Probe 438 (0.53483 0.52149 0)
# Probe 439 (0.5537 0.5262 0)
# Probe 440 (0.54763 0.50769 0)
# Probe 441 (0.56621 0.51275 0)
# Probe 442 (0.56034 0.49386 0)
# Probe 443 (0.57884 0.49882 0)
# Probe 444 (0.57336 0.48036 0)
# Probe 445 (0.55507 0.47568 0)
# Probe 446 (0.56748 0.46261 0)
# Probe 447 (0.54989 0.45857 0)
# Probe 448 (0.56177 0.44584 0)
# Probe 449 (0.54496 0.4415 0)
# Probe 450 (0.55737 0.42918 0)
# Probe 451 (0.48149 0.55507 0)
# Probe 452 (0.59303 0.48461 0)
# Probe 453 (0.53 0.50413 0)
# Probe 454 (0.57412 0.4329 0)
# Probe 455 (0.56836 0.41575 0)
# Probe 456 (0.54953 0.41394 0)
# Probe 457 (0.56191 0.39909 0)
# Probe 458 (0.54439 0.39573 0)
# Probe 459 (0.55606 0.38225 0)
# Probe 460 (0.5387 0.3787 0)
# Probe 461 (0.55005 0.36556 0)
# Probe 462 (0.53261 0.36196 0)
# Probe 463 (0.54431 0.34844 0)
# Probe 464 (0.52631 0.34486 0)
# Probe 465 (0.5373 0.47063 0)
# Probe 466 (0.50688 0.53237 0)
# Probe 467 (0.62924 0.84791 0)
# Probe 468 (0.66703 0.85882 0)
# Probe 469 (0.63975 0.74304 0)
# Probe 470 (0.32399 0.58156 0)
# Probe 471 (0.32232 0.56525 0)
# Probe 472 (0.55656 0.5427 0)
# Probe 473 (0.29384 0.52515 0)
# Probe 474 (0.42759 0.86877 0)
# Probe 475 (0.39184 0.85427 0)
# Probe 476 (0.38511 0.81799 0)
# Probe 477 (0.35595 0.84131 0)
# Probe 478 (0.32706 0.60065 0)
# Probe 479 (0.39984 0.56532 0)
# Probe 480 (0.34916 0.56095 0)
# Probe 481 (0.26033 0.43918 0)
# Probe 482 (0.56813 0.36814 0)
# Probe 483 (0.70045 0.69348 0)
# Probe 484 (0.27353 0.55602 0)
# Probe 485 (0.59883 0.5036 0)
# Probe 486 (0.35043 0.80433 0)
# Probe 487 (0.32039 0.82697 0)
# Probe 488 (0.32514 0.86286 0)
# Probe 489 (0.29018 0.8491 0)
# Probe 490 (0.28494 0.81168 0)
# Probe 491 (0.25406 0.83493 0)
# Probe 492 (0.24943 0.79581 0)
# Probe 493 (0.21812 0.81968 0)
# Probe 494 (0.21355 0.78045 0)
# Probe 495 (0.18148 0.80425 0)
# Probe 496 (0.17679 0.76417 0)
# Probe 497 (0.18604 0.8449 0)
# Probe 498 (0.14393 0.7909 0)
# Probe 499 (0.13907 0.74739 0)
# Probe 500 (0.27831 0.7718 0)
# Probe 501 (0.17231 0.72343 0)
# Probe 502 (0.13318 0.70934 0)
# Probe 503 (0.23282 0.50279 0)
# Probe 504 (0.53272 0.56861 0)
# Probe 505 (0.10255 0.72869 0)
# Probe 506 (0.58723 0.42018 0)
# Probe 507 (0.27216 0.47521 0)
# Probe 508 (0.25726 0.8728 0)
# Probe 509 (0.24413 0.53343 0)
# Probe 510 (0.30867 0.57652 0)
# Probe 511 (0.61421 0.48952 0)
# Probe 512 (0.53318 0.40779 0)
# Probe 513 (0.52113 0.37617 0)
# Probe 514 (0.53828 0.33153 0)
# Probe 515 (0.51989 0.32896 0)
# Probe 516 (0.50921 0.34219 0)
# Probe 517 (0.50013 0.32699 0)
# Probe 518 (0.51421 0.31366 0)
# Probe 519 (0.49545 0.30959 0)
# Probe 520 (0.48384 0.32222 0)
# Probe 521 (0.47848 0.30734 0)
# Probe 522 (0.87292 0.67284 0)
# Probe 523 (0.88348 0.71405 0)
# Probe 524 (0.86237 0.6325 0)
# Probe 525 (0.85246 0.74372 0)
# Probe 526 (0.8923 0.75511 0)
# Probe 527 (0.86085 0.78705 0)
# Probe 528 (0.59168 0.83603 0)
# Probe 529 (0.59916 0.87499 0)
# Probe 530 (0.46933 0.3206 0)
# Probe 531 (0.4625 0.30632 0)
# Probe 532 (0.42633 0.32487 0)
# Probe 533 (0.47035 0.29223 0)
# Probe 534 (0.4322 0.66265 0)
# Probe 535 (0.37904 0.7826 0)
# Probe 536 (0.30019 0.5407 0)
# Probe 537 (0.46103 0.88215 0)
# Probe 538 (0.23768 0.69022 0)
# Probe 539 (0.24007 0.72222 0)
# Probe 540 (0.31184 0.52607 0)
# Probe 541 (0.41192 0.65575 0)
# Probe 542 (0.42949 0.9071 0)
# Probe 543 (0.18219 0.63911 0)
# Probe 544 (0.45489 0.29413 0)
# Probe 545 (0.44515 0.30766 0)
# Probe 546 (0.43837 0.29081 0)
# Probe 547 (0.42979 0.30432 0)
# Probe 548 (0.42269 0.29033 0)
# Probe 549 (0.41564 0.30233 0)
# Probe 550 (0.40753 0.28933 0)
# Probe 551 (0.41733 0.27445 0)
# Probe 552 (0.39987 0.30305 0)
# Probe 553 (0.39218 0.28879 0)
# Probe 554 (0.38432 0.30149 0)
# Probe 555 (0.37669 0.28803 0)
# Probe 556 (0.36875 0.30304 0)
# Probe 557 (0.36089 0.28727 0)
# Probe 558 (0.3531 0.30036 0)
# Probe 559 (0.34427 0.28561 0)
# Probe 560 (0.3368 0.30208 0)
# Probe 561 (0.3265 0.28408 0)
# Probe 562 (0.31712 0.29998 0)
# Probe 563 (0.32547 0.31559 0)
# Probe 564 (0.30855 0.31467 0)
# Probe 565 (0.35371 0.27131 0)
# Probe 566 (0.31675 0.33156 0)
# Probe 567 (0.31332 0.3657 0)
# Probe 568 (0.30003 0.33026 0)
# Probe 569 (0.29178 0.31482 0)
# Probe 570 (0.28367 0.33046 0)
# Probe 571 (0.29177 0.34499 0)
# Probe 572 (0.27531 0.34553 0)
# Probe 573 (0.28408 0.35931 0)
# Probe 574 (0.26735 0.36042 0)
# Probe 575 (0.27868 0.37535 0)
# Probe 576 (0.33296 0.3297 0)
# Probe 577 (0.30309 0.51257 0)
# Probe 578 (0.59225 0.43821 0)
# Probe 579 (0.54514 0.7241 0)
# Probe 580 (0.57448 0.73312 0)
# Probe 581 (0.5953 0.71244 0)
# Probe 582 (0.41116 0.55661 0)
# Probe 583 (0.42382 0.56069 0)
# Probe 584 (0.4222 0.54671 0)
# Probe 585 (0.4339 0.55113 0)
# Probe 586 (0.46973 0.56817 0)
# Probe 587 (0.46628 0.55084 0)
# Probe 588 (0.47694 0.54053 0)
# Probe 589 (0.46261 0.5352 0)
# Probe 590 (0.45293 0.54563 0)
# Probe 591 (0.18341 0.67018 0)
# Probe 592 (0.1514 0.65426 0)
# Probe 593 (0.609 0.46676 0)
# Probe 594 (0.38469 0.27726 0)
# Probe 595 (0.55741 0.33528 0)
# Probe 596 (0.9134 0.64595 0)
# Probe 597 (0.89429 0.60393 0)
# Probe 598 (0.58505 0.79853 0)
# Probe 599 (0.31651 0.54098 0)
# Probe 600 (0.32421 0.53134 0)
# Probe 601 (0.33178 0.54141 0)
# Probe 602 (0.3599 0.31345 0)
# Probe 603 (0.33877 0.317 0)
# Probe 604 (0.9321 0.60652 0)
# Probe 605 (0.26236 0.30891 0)
# Probe 606 (0.56267 0.86482 0)
# Probe 607 (0.56961 0.90366 0)
# Probe 608 (0.53155 0.89365 0)
# Probe 609 (0.5405 0.93182 0)
# Probe 610 (0.26028 0.37535 0)
# Probe 611 (0.24893 0.36084 0)
# Probe 612 (0.27022 0.38893 0)
# Probe 613 (0.28429 0.38962 0)
# Probe 614 (0.27784 0.40272 0)
# Probe 615 (0.43634 0.56378 0)
# Probe 616 (0.39034 0.31263 0)
# Probe 617 (0.39914 0.55006 0)
# Probe 618 (0.3872 0.55969 0)
# Probe 619 (0.25208 0.41489 0)
# Probe 620 (0.38536 0.54668 0)
# Probe 621 (0.3737 0.55378 0)
# Probe 622 (0.26445 0.45335 0)
# Probe 623 (0.27306 0.44042 0)
# Probe 624 (0.27073 0.42723 0)
# Probe 625 (0.1034 0.68659 0)
# Probe 626 (0.9239 0.72139 0)
# Probe 627 (0.52482 0.28092 0)
# Probe 628 (0.54178 0.48755 0)
# Probe 629 (0.5239 0.48914 0)
# Probe 630 (0.51442 0.50081 0)
# Probe 631 (0.52129 0.47137 0)
# Probe 632 (0.5112 0.48754 0)
# Probe 633 (0.57725 0.29849 0)
# Probe 634 (0.46335 0.58417 0)
# Probe 635 (0.52906 0.39169 0)
# Probe 636 (0.51889 0.40377 0)
# Probe 637 (0.52336 0.41725 0)
# Probe 638 (0.53559 0.42174 0)
# Probe 639 (0.52353 0.43118 0)
# Probe 640 (0.39471 0.62837 0)
# Probe 641 (0.37894 0.64178 0)
# Probe 642 (0.46831 0.26363 0)
# Probe 643 (0.51633 0.5178 0)
# Probe 644 (0.50291 0.51056 0)
# Probe 645 (0.49048 0.51884 0)
# Probe 646 (0.28712 0.50896 0)
# Probe 647 (0.28476 0.49393 0)
# Probe 648 (0.2999 0.49783 0)
# Probe 649 (0.29972 0.61186 0)
# Probe 650 (0.301 0.26172 0)
# Probe 651 (0.35788 0.63438 0)
# Probe 652 (0.08683 0.45653 0)
# Probe 653 (0.08597 0.41359 0)
# Probe 654 (0.11858 0.43359 0)
# Probe 655 (0.11933 0.39761 0)
# Probe 656 (0.09106 0.37426 0)
# Probe 657 (0.12842 0.35905 0)
# Probe 658 (0.09717 0.33719 0)
# Probe 659 (0.13008 0.32178 0)
# Probe 660 (0.10285 0.30091 0)
# Probe 661 (0.13582 0.28559 0)
# Probe 662 (0.10851 0.26372 0)
# Probe 663 (0.14297 0.24864 0)
# Probe 664 (0.11395 0.22605 0)
# Probe 665 (0.15103 0.21154 0)
# Probe 666 (0.11971 0.18687 0)
# Probe 667 (0.15849 0.17197 0)
# Probe 668 (0.12639 0.1479 0)
# Probe 669 (0.16511 0.13152 0)
# Probe 670 (0.19715 0.15758 0)
# Probe 671 (0.20404 0.11819 0)
# Probe 672 (0.23473 0.144 0)
# Probe 673 (0.24203 0.10591 0)
# Probe 674 (0.27215 0.13031 0)
# Probe 675 (0.27756 0.09122 0)
# Probe 676 (0.30902 0.11677 0)
# Probe 677 (0.18392 0.23741 0)
# Probe 678 (0.31582 0.07869 0)
# Probe 679 (0.34578 0.10529 0)
# Probe 680 (0.33959 0.1429 0)
# Probe 681 (0.37472 0.12803 0)
# Probe 682 (0.17279 0.09027 0)
# Probe 683 (0.14389 0.41883 0)
# Probe 684 (0.14681 0.45098 0)
# Probe 685 (0.06227 0.35068 0)
# Probe 686 (0.26251 0.16617 0)
# Probe 687 (0.38133 0.09254 0)
# Probe 688 (0.40981 0.11844 0)
# Probe 689 (0.41661 0.07926 0)
# Probe 690 (0.44669 0.10694 0)
# Probe 691 (0.45687 0.07004 0)
# Probe 692 (0.48489 0.0981 0)
# Probe 693 (0.47548 0.13357 0)
# Probe 694 (0.51194 0.12333 0)
# Probe 695 (0.50257 0.1569 0)
# Probe 696 (0.53809 0.14899 0)
# Probe 697 (0.54802 0.11302 0)
# Probe 698 (0.57557 0.13998 0)
# Probe 699 (0.58535 0.10233 0)
# Probe 700 (0.61369 0.13043 0)
# Probe 701 (0.62373 0.09153 0)
# Probe 702 (0.65173 0.12039 0)
# Probe 703 (0.64162 0.15872 0)
# Probe 704 (0.67949 0.14894 0)
# Probe 705 (0.66875 0.18729 0)
# Probe 706 (0.70708 0.17853 0)
# Probe 707 (0.71831 0.139 0)
# Probe 708 (0.74615 0.16855 0)
# Probe 709 (0.73452 0.20796 0)
# Probe 710 (0.77365 0.19826 0)
# Probe 711 (0.76192 0.23706 0)
# Probe 712 (0.80084 0.22784 0)
# Probe 713 (0.78929 0.26685 0)
# Probe 714 (0.81377 0.18883 0)
# Probe 715 (0.83511 0.25699 0)
# Probe 716 (0.81664 0.29688 0)
# Probe 717 (0.77713 0.30524 0)
# Probe 718 (0.80435 0.33504 0)
# Probe 719 (0.84283 0.32754 0)
# Probe 720 (0.8305 0.36493 0)
# Probe 721 (0.79201 0.37286 0)
# Probe 722 (0.81772 0.4021 0)
# Probe 723 (0.86863 0.35648 0)
# Probe 724 (0.77997 0.40912 0)
# Probe 725 (0.80499 0.43841 0)
# Probe 726 (0.84334 0.43158 0)
# Probe 727 (0.82976 0.46881 0)
# Probe 728 (0.87153 0.46123 0)
# Probe 729 (0.85596 0.50006 0)
# Probe 730 (0.75855 0.12863 0)
# Probe 731 (0.72375 0.24658 0)
# Probe 732 (0.79068 0.47394 0)
# Probe 733 (0.75548 0.38132 0)
# Probe 734 (0.87798 0.31496 0)
# Probe 735 (0.9126 0.3492 0)
# Probe 736 (0.88205 0.4195 0)
# Probe 737 (0.72956 0.0992 0)
# Probe 738 (0.74475 0.41533 0)
# Probe 739 (0.63263 0.2 0)
# Probe 740 (0.66098 0.22594 0)
# Probe 741 (0.89643 0.49328 0)
# Probe 742 (0.88391 0.5324 0)
# Probe 743 (0.46867 0.16933 0)
# Probe 744 (0.84516 0.53625 0)
# Probe 745 (0.77314 0.08887 0)
# Probe 746 (0.80355 0.12317 0)
# Probe 747 (0.56343 0.17401 0)
# Probe 748 (0.59556 0.06523 0)
# Probe 749 (0.62086 0.40988 0)
# Probe 750 (0.53425 0.45392 0)
# Probe 751 (0.51342 0.35952 0)
# Probe 752 (0.50075 0.35285 0)
# Probe 753 (0.49476 0.34309 0)
# Probe 754 (0.49444 0.54199 0)
# Probe 755 (0.2804 0.46083 0)
# Probe 756 (0.47436 0.33539 0)
# Probe 757 (0.46104 0.33152 0)
# Probe 758 (0.45471 0.31953 0)
# Probe 759 (0.17322 0.51997 0)
# Probe 760 (0.17432 0.49224 0)
# Probe 761 (0.19696 0.50961 0)
# Probe 762 (0.60312 0.35545 0)
# Probe 763 (0.91873 0.56199 0)
# Probe 764 (0.50018 0.49571 0)
# Probe 765 (0.44995 0.53323 0)
# Probe 766 (0.25372 0.58739 0)
# Probe 767 (0.27112 0.73488 0)
# Probe 768 (0.91105 0.79701 0)
# Probe 769 (0.87161 0.83128 0)
# Probe 770 (0.82745 0.81828 0)
# Probe 771 (0.83728 0.86398 0)
# Probe 772 (0.79348 0.84956 0)
# Probe 773 (0.88021 0.87737 0)
# Probe 774 (0.79806 0.89324 0)
# Probe 775 (0.75868 0.87814 0)
# Probe 776 (0.29919 0.15617 0)
# Probe 777 (0.30961 0.63586 0)
# Probe 778 (0.51281 0.42525 0)
# Probe 779 (0.27733 0.04454 0)
# Probe 780 (0.07743 0.2422 0)
# Probe 781 (0.63098 0.47594 0)
# Probe 782 (0.58787 0.58166 0)
# Probe 783 (0.56591 0.57633 0)
# Probe 784 (0.54439 0.58858 0)
# Probe 785 (0.54901 0.61723 0)
# Probe 786 (0.52705 0.63479 0)
# Probe 787 (0.58396 0.5584 0)
# Probe 788 (0.59742 0.53869 0)
# Probe 789 (0.43817 0.14563 0)
# Probe 790 (0.50754 0.37107 0)
# Probe 791 (0.3879 0.6656 0)
# Probe 792 (0.11677 0.48585 0)
# Probe 793 (0.78213 0.80378 0)
# Probe 794 (0.44344 0.32084 0)
# Probe 795 (0.36048 0.65863 0)
# Probe 796 (0.33597 0.62361 0)
# Probe 797 (0.34871 0.76849 0)
# Probe 798 (0.39819 0.25174 0)
# Probe 799 (0.74068 0.05711 0)
# Probe 800 (0.71783 0.38889 0)
# Probe 801 (0.73377 0.362 0)
# Probe 802 (0.71274 0.42334 0)
# Probe 803 (0.60143 0.17122 0)
# Probe 804 (0.45956 0.66563 0)
# Probe 805 (0.44772 0.64346 0)
# Probe 806 (0.41308 0.79564 0)
# Probe 807 (0.40309 0.75988 0)
# Probe 808 (0.44033 0.76896 0)
# Probe 809 (0.22827 0.55029 0)
# Probe 810 (0.24523 0.5662 0)
# Probe 811 (0.47185 0.5281 0)
# Probe 812 (0.22677 0.18708 0)
# Probe 813 (0.18749 0.19784 0)
# Probe 814 (0.35057 0.2459 0)
# Probe 815 (0.62227 0.51203 0)
# Probe 816 (0.62407 0.53898 0)
# Probe 817 (0.45583 0.5594 0)
# Probe 818 (0.50515 0.45634 0)
# Probe 819 (0.51491 0.45302 0)
# Probe 820 (0.42633 0.53513 0)
# Probe 821 (0.45578 0.52425 0)
# Probe 822 (0.39395 0.53864 0)
# Probe 823 (0.04504 0.5674 0)
# Probe 824 (0.05739 0.60883 0)
# Probe 825 (0.09829 0.61774 0)
# Probe 826 (0.507 0.40466 0)
# Probe 827 (0.2984 0.3572 0)
# Probe 828 (0.30565 0.34453 0)
# Probe 829 (0.2952 0.37101 0)
# Probe 830 (0.67218 0.71888 0)
# Probe 831 (0.66574 0.68252 0)
# Probe 832 (0.6411 0.70537 0)
# Probe 833 (0.69316 0.65265 0)
# Probe 834 (0.73107 0.66605 0)
# Probe 835 (0.61382 0.77344 0)
# Probe 836 (0.20933 0.70981 0)
# Probe 837 (0.29316 0.44587 0)
# Probe 838 (0.39883 0.15415 0)
# Probe 839 (0.3634 0.53221 0)
# Probe 840 (0.36641 0.54264 0)
# Probe 841 (0.35502 0.53922 0)
# Probe 842 (0.49766 0.47617 0)
# Probe 843 (0.33569 0.51672 0)
# Probe 844 (0.76846 0.44366 0)
# Probe 845 (0.75464 0.47848 0)
# Probe 846 (0.77779 0.50944 0)
# Probe 847 (0.73879 0.51568 0)
# Probe 848 (0.81739 0.50506 0)
# Probe 849 (0.47278 0.5103 0)
# Probe 850 (0.48744 0.49486 0)
# Probe 851 (0.48708 0.36559 0)
# Probe 852 (0.4986 0.38317 0)
# Probe 853 (0.50893 0.38488 0)
# Probe 854 (0.426 0.9526 0)
# Probe 855 (0.48015 0.3572 0)
# Probe 856 (0.32443 0.95843 0)
# Probe 857 (0.3036 0.92205 0)
# Probe 858 (0.3476 0.91944 0)
# Probe 859 (0.42842 0.2578 0)
# Probe 860 (0.36353 0.32586 0)
# Probe 861 (0.75027 0.27486 0)
# Probe 862 (0.71462 0.28318 0)
# Probe 863 (0.68541 0.26054 0)
# Probe 864 (0.73874 0.30933 0)
# Probe 865 (0.70189 0.3165 0)
# Probe 866 (0.69675 0.21781 0)
# Probe 867 (0.24416 0.75716 0)
# Probe 868 (0.30101 0.74654 0)
# Probe 869 (0.9606 0.47376 0)
# Probe 870 (0.30704 0.37428 0)
# Probe 871 (0.29639 0.39251 0)
# Probe 872 (0.31616 0.78295 0)
# Probe 873 (0.29817 0.46643 0)
# Probe 874 (0.29194 0.47429 0)
# Probe 875 (0.30638 0.48596 0)
# Probe 876 (0.34416 0.33656 0)
# Probe 877 (0.33509 0.34239 0)
# Probe 878 (0.31976 0.50273 0)
# Probe 879 (0.27484 0.57849 0)
# Probe 880 (0.23364 0.34532 0)
# Probe 881 (0.2928 0.41404 0)
# Probe 882 (0.41601 0.32269 0)
# Probe 883 (0.37626 0.56793 0)
# Probe 884 (0.31992 0.35741 0)
# Probe 885 (0.17611 0.04583 0)
# Probe 886 (0.03655 0.72603 0)
# Probe 887 (0.22547 0.9583 0)
# Probe 888 (0.20187 0.91914 0)
# Probe 889 (0.15361 0.91598 0)
# Probe 890 (0.12727 0.9547 0)
# Probe 891 (0.10799 0.91157 0)
# Probe 892 (0.1388 0.86887 0)
# Probe 893 (0.08408 0.86236 0)
# Probe 894 (0.11062 0.82918 0)
# Probe 895 (0.33231 0.26105 0)
# Probe 896 (0.29205 0.43518 0)
# Probe 897 (0.95785 0.22518 0)
# Probe 898 (0.91575 0.20131 0)
# Probe 899 (0.91473 0.15324 0)
# Probe 900 (0.86699 0.18207 0)
# Probe 901 (0.87333 0.13365 0)
# Probe 902 (0.87506 0.22669 0)
# Probe 903 (0.9126 0.10773 0)
# Probe 904 (0.86786 0.08494 0)
# Probe 905 (0.91672 0.24831 0)
# Probe 906 (0.87538 0.27065 0)
# Probe 907 (0.49074 0.50602 0)
# Probe 908 (0.76056 0.34254 0)
# Probe 909 (0.0382 0.777 0)
# Probe 910 (0.2407 0.37784 0)
# Probe 911 (0.67428 0.957 0)
# Probe 912 (0.65246 0.92014 0)
# Probe 913 (0.69663 0.92004 0)
# Probe 914 (0.72348 0.9582 0)
# Probe 915 (0.95745 0.37344 0)
# Probe 916 (0.95772 0.32312 0)
# Probe 917 (0.05052 0.12785 0)
# Probe 918 (0.08568 0.10088 0)
# Probe 919 (0.64042 0.49614 0)
# Probe 920 (0.52537 0.18411 0)
# Probe 921 (0.29051 0.55537 0)
# Probe 922 (0.55252 0.82581 0)
# Probe 923 (0.91636 0.45107 0)
# Probe 924 (0.22257 0.52308 0)
# Probe 925 (0.43127 0.03904 0)
# Probe 926 (0.95705 0.12752 0)
# Probe 927 (0.82488 0.96031 0)
# Probe 928 (0.95674 0.87492 0)
# Probe 929 (0.96011 0.77599 0)
# Probe 930 (0.28163 0.41694 0)
# Probe 931 (0.58285 0.94536 0)
# Probe 932 (0.31633 0.51257 0)
# Probe 933 (0.35355 0.52829 0)
# Probe 934 (0.34403 0.53476 0)
# Probe 935 (0.34534 0.5473 0)
# Probe 936 (0.58612 0.46614 0)
# Probe 937 (0.42067 0.73429 0)
# Probe 938 (0.25291 0.91707 0)
# Probe 939 (0.37825 0.31314 0)
# Probe 940 (0.5178 0.44217 0)
# Probe 941 (0.55084 0.31493 0)
# Probe 942 (0.5749 0.53491 0)
# Probe 943 (0.65732 0.65135 0)
# Probe 944 (0.37323 0.74727 0)
# Probe 945 (0.46394 0.34249 0)
# Probe 946 (0.30732 0.55586 0)
# Probe 947 (0.91878 0.40039 0)
# Probe 948 (0.19868 0.48262 0)
# Probe 949 (0.17862 0.46293 0)
# Probe 950 (0.61188 0.22696 0)
# Probe 951 (0.12884 0.10717 0)
# Probe 952 (0.845 0.91449 0)
# Probe 953 (0.16172 0.36094 0)
# Probe 954 (0.52753 0.60659 0)
# Probe 955 (0.21037 0.74463 0)
# Probe 956 (0.10543 0.77221 0)
# Probe 957 (0.4159 0.53721 0)
# Probe 958 (0.50705 0.29443 0)
# Probe 959 (0.55339 0.20803 0)
# Probe 960 (0.08592 0.16178 0)
# Probe 961 (0.91491 0.84601 0)
# Probe 962 (0.85079 0.59848 0)
# Probe 963 (0.30834 0.28337 0)
# Probe 964 (0.58692 0.68325 0)
# Probe 965 (0.07299 0.65469 0)
# Probe 966 (0.29291 0.7121 0)
# Probe 967 (0.50322 0.92701 0)
# Probe 968 (0.71977 0.48071 0)
# Probe 969 (0.71684 0.53407 0)
# Probe 970 (0.72571 0.62961 0)
# Probe 971 (0.07578 0.95088 0)