# Probe 0 (0 0 0)
# Probe 1 (1 0 0)
# Probe 2 (1 1 0)
# Probe 3 (0 1 0)
# Probe 4 (0.44 0.4 0)
# Probe 5 (0.34 0.3 0)
# Probe 6 (0.24 0.4 0)
# Probe 7 (0.34 0.5 0)
# Probe 8 (0.05 0 0)
# Probe 9 (0.1 0 0)
# Probe 10 (0.15 0 0)
# Probe 11 (0.2 0 0)
# Probe 12 (0.25 0 0)
# Probe 13 (0.3 0 0)
# Probe 14 (0.35 0 0)
# Probe 15 (0.4 0 0)
# Probe 16 (0.45 0 0)
# Probe 17 (0.5 0 0)
# Probe 18 (0.55 0 0)
# Probe 19 (0.6 0 0)
# Probe 20 (0.65 0 0)
# Probe 21 (0.7 0 0)
# Probe 22 (0.75 0 0)
# Probe 23 (0.8 0 0)
# Probe 24 (0.85 0 0)
# Probe 25 (0.9 0 0)
# Probe 26 (0.95 0 0)
# Probe 27 (1 0.05 0)
# Probe 28 (1 0.1 0)
# Probe 29 (1 0.15 0)
# Probe 30 (1 0.2 0)
# Probe 31 (1 0.25 0)
# Probe 32 (1 0.3 0)
# Probe 33 (1 0.35 0)
# Probe 34 (1 0.4 0)
# Probe 35 (1 0.45 0)
# Probe 36 (1 0.5 0)
# Probe 37 (1 0.55 0)
# Probe 38 (1 0.6 0)
# Probe 39 (1 0.65 0)
# Probe 40 (1 0.7 0)
# Probe 41 (1 0.75 0)
# Probe 42 (1 0.8 0)
# Probe 43 (1 0.85 0)
# Probe 44 (1 0.9 0)
# Probe 45 (1 0.95 0)
# Probe 46 (0.95 1 0)
# Probe 47 (0.9 1 0)
# Probe 48 (0.85 1 0)
# Probe 49 (0.8 1 0)
# Probe 50 (0.75 1 0)
# Probe 51 (0.7 1 0)
# Probe 52 (0.65 1 0)
# Probe 53 (0.6 1 0)
# Probe 54 (0.55 1 0)
# Probe 55 (0.5 1 0)
# Probe 56 (0.45 1 0)
# Probe 57 (0.4 1 0)
# Probe 58 (0.35 1 0)
# Probe 59 (0.3 1 0)
# Probe 60 (0.25 1 0)
# Probe 61 (0.2 1 0)
# Probe 62 (0.15 1 0)
# Probe 63 (0.1 1 0)
# Probe 64 (0.05 1 0)
# Probe 65 (0 0.95 0)
# Probe 66 (0 0.9 0)
# Probe 67 (0 0.85 0)
# Probe 68 (0 0.8 0)
# Probe 69 (0 0.75 0)
# Probe 70 (0 0.7 0)
# Probe 71 (0 0.65 0)
# Probe 72 (0 0.6 0)
# Probe 73 (0 0.55 0)
# Probe 74 (0 0.5 0)
# Probe 75 (0 0.45 0)
# Probe 76 (0 0.4 0)
# Probe 77 (0 0.35 0)
# Probe 78 (0 0.3 0)
# Probe 79 (0 0.25 0)
# Probe 80 (0 0.2 0)
# Probe 81 (0 0.15 0)
# Probe 82 (0 0.1 0)
# Probe 83 (0 0.05 0)
# Probe 84 (0.43952 0.3902 0)
# Probe 85 (0.43808 0.38049 0)
# Probe 86 (0.43569 0.37097 0)
# Probe 87 (0.43239 0.36173 0)
# Probe 88 (0.42819 0.35286 0)
# Probe 89 (0.42315 0.34444 0)
# Probe 90 (0.4173 0.33656 0)
# Probe 91 (0.41071 0.32929 0)
# Probe 92 (0.40344 0.3227 0)
# Probe 93 (0.39556 0.31685 0)
# Probe 94 (0.38714 0.31181 0)
# Probe 95 (0.37827 0.30761 0)
# Probe 96 (0.36903 0.30431 0)
# Probe 97 (0.35951 0.30192 0)
# Probe 98 (0.3498 0.30048 0)
# Probe 99 (0.3302 0.30048 0)
# Probe 100 (0.32049 0.30192 0)
# Probe 101 (0.31097 0.30431 0)
# Probe 102 (0.30173 0.30761 0)
# Probe 103 (0.29286 0.31181 0)
# Probe 104 (0.28444 0.31685 0)
# Probe 105 (0.27656 0.3227 0)
# Probe 106 (0.26929 0.32929 0)
# Probe 107 (0.2627 0.33656 0)
# Probe 108 (0.25685 0.34444 0)
# Probe 109 (0.25181 0.35286 0)
# Probe 110 (0.24761 0.36173 0)
# Probe 111 (0.24431 0.37097 0)
# Probe 112 (0.24192 0.38049 0)
# Probe 113 (0.24048 0.3902 0)
# Probe 114 (0.24048 0.4098 0)
# Probe 115 (0.24192 0.41951 0)
# Probe 116 (0.24431 0.42903 0)
# Probe 117 (0.24761 0.43827 0)
# Probe 118 (0.25181 0.44714 0)
# Probe 119 (0.25685 0.45556 0)
# Probe 120 (0.2627 0.46344 0)
# Probe 121 (0.26929 0.47071 0)
# Probe 122 (0.27656 0.4773 0)
# Probe 123 (0.28444 0.48315 0)
# Probe 124 (0.29286 0.48819 0)
# Probe 125 (0.30173 0.49239 0)
# Probe 126 (0.31097 0.49569 0)
# Probe 127 (0.32049 0.49808 0)
# Probe 128 (0.3302 0.49952 0)
# Probe 129 (0.3498 0.49952 0)
# Probe 130 (0.35951 0.49808 0)
# Probe 131 (0.36903 0.49569 0)
# Probe 132 (0.37827 0.49239 0)
# Probe 133 (0.38714 0.48819 0)
# Probe 134 (0.39556 0.48315 0)
# Probe 135 (0.40344 0.4773 0)
# Probe 136 (0.41071 0.47071 0)
# Probe 137 (0.4173 0.46344 0)
# Probe 138 (0.42315 0.45556 0)
# Probe 139 (0.42819 0.44714 0)
# Probe 140 (0.43239 0.43827 0)
# Probe 141 (0.43569 0.42903 0)
# Probe 142 (0.43808 0.41951 0)
# Probe 143 (0.43952 0.4098 0)
# Probe 144 (0.9567 0.625 0)
# Probe 145 (0.62771 0.95769 0)
# Probe 146 (0.95813 0.32659 0)
# Probe 147 (0.4727 0.95122 0)
# Probe 148 (0.67707 0.04438 0)
# Probe 149 (0.27906 0.95413 0)
# Probe 150 (0.04489 0.67159 0)
# Probe 151 (0.95727 0.47391 0)
# Probe 152 (0.23175 0.39468 0)
# Probe 153 (0.52103 0.03778 0)
# Probe 154 (0.95643 0.77433 0)
# Probe 155 (0.21989 0.04166 0)
# Probe 156 (0.04338 0.22003 0)
# Probe 157 (0.37452 0.04391 0)
# Probe 158 (0.03987 0.52232 0)
# Probe 159 (0.23487 0.42633 0)
# Probe 160 (0.77408 0.95689 0)
# Probe 161 (0.23622 0.37375 0)
# Probe 162 (0.8159 0.04403 0)
# Probe 163 (0.04605 0.82109 0)
# Probe 164 (0.04184 0.32771 0)
# Probe 165 (0.04341 0.42419 0)
# Probe 166 (0.95091 0.17705 0)
# Probe 167 (0.3684 0.95684 0)
# Probe 168 (0.17736 0.95919 0)
# Probe 169 (0.875 0.9567 0)
# Probe 170 (0.04283 0.12577 0)
# Probe 171 (0.12624 0.04498 0)
# Probe 172 (0.95615 0.87205 0)
# Probe 173 (0.0425 0.925 0)
# Probe 174 (0.92305 0.04727 0)
# Probe 175 (0.04055 0.37378 0)
# Probe 176 (0.08104 0.35498 0)
# Probe 177 (0.08062 0.31162 0)
# Probe 178 (0.11614 0.33161 0)
# Probe 179 (0.24657 0.34348 0)
# Probe 180 (0.117 0.36544 0)
# Probe 181 (0.11373 0.29666 0)
# Probe 182 (0.14166 0.31139 0)
# Probe 183 (0.14178 0.28277 0)
# Probe 184 (0.16928 0.29917 0)
# Probe 185 (0.16793 0.27081 0)
# Probe 186 (0.27551 0.31301 0)
# Probe 187 (0.19255 0.28166 0)
# Probe 188 (0.19228 0.25708 0)
# Probe 189 (0.16953 0.24297 0)
# Probe 190 (0.19484 0.23089 0)
# Probe 191 (0.21697 0.24651 0)
# Probe 192 (0.22 0.22018 0)
# Probe 193 (0.24075 0.2346 0)
# Probe 194 (0.31327 0.29302 0)
# Probe 195 (0.24397 0.20962 0)
# Probe 196 (0.26693 0.22782 0)
# Probe 197 (0.26815 0.19946 0)
# Probe 198 (0.2892 0.2147 0)
# Probe 199 (0.29202 0.18812 0)
# Probe 200 (0.31227 0.20357 0)
# Probe 201 (0.35614 0.29158 0)
# Probe 202 (0.33468 0.29175 0)
# Probe 203 (0.19762 0.20274 0)
# Probe 204 (0.16554 0.32388 0)
# Probe 205 (0.31655 0.1772 0)
# Probe 206 (0.33806 0.19614 0)
# Probe 207 (0.26869 0.17289 0)
# Probe 208 (0.34167 0.16567 0)
# Probe 209 (0.36358 0.18277 0)
# Probe 210 (0.36153 0.20722 0)
# Probe 211 (0.38488 0.19855 0)
# Probe 212 (0.38699 0.30099 0)
# Probe 213 (0.38889 0.17188 0)
# Probe 214 (0.40941 0.18964 0)
# Probe 215 (0.40525 0.21478 0)
# Probe 216 (0.42854 0.20671 0)
# Probe 217 (0.42408 0.23029 0)
# Probe 218 (0.44643 0.22257 0)
# Probe 219 (0.41984 0.32724 0)
# Probe 220 (0.4049 0.3127 0)
# Probe 221 (0.45162 0.19936 0)
# Probe 222 (0.46935 0.2158 0)
# Probe 223 (0.46118 0.24118 0)
# Probe 224 (0.48559 0.23281 0)
# Probe 225 (0.48004 0.25492 0)
# Probe 226 (0.50245 0.24866 0)
# Probe 227 (0.49443 0.27307 0)
# Probe 228 (0.51894 0.26477 0)
# Probe 229 (0.51358 0.28729 0)
# Probe 230 (0.53598 0.28059 0)
# Probe 231 (0.53071 0.30314 0)
# Probe 232 (0.55287 0.2966 0)
# Probe 233 (0.54748 0.31942 0)
# Probe 234 (0.57008 0.31286 0)
# Probe 235 (0.56445 0.33606 0)
# Probe 236 (0.58745 0.32945 0)
# Probe 237 (0.58117 0.35273 0)
# Probe 238 (0.6053 0.34615 0)
# Probe 239 (0.59904 0.37038 0)
# Probe 240 (0.62358 0.36364 0)
# Probe 241 (0.61656 0.38829 0)
# Probe 242 (0.62977 0.33848 0)
# Probe 243 (0.44848 0.4056 0)
# Probe 244 (0.64279 0.38164 0)
# Probe 245 (0.63593 0.40762 0)
# Probe 246 (0.60577 0.41491 0)
# Probe 247 (0.62826 0.43355 0)
# Probe 248 (0.60331 0.44033 0)
# Probe 249 (0.6219 0.45903 0)
# Probe 250 (0.59747 0.46574 0)
# Probe 251 (0.61513 0.48455 0)
# Probe 252 (0.59171 0.49031 0)
# Probe 253 (0.60832 0.51069 0)
# Probe 254 (0.57963 0.5144 0)
# Probe 255 (0.60112 0.53692 0)
# Probe 256 (0.57325 0.54312 0)
# Probe 257 (0.59417 0.56441 0)
# Probe 258 (0.56088 0.56956 0)
# Probe 259 (0.42003 0.47256 0)
# Probe 260 (0.5862 0.59228 0)
# Probe 261 (0.55745 0.5998 0)
# Probe 262 (0.43778 0.44649 0)
# Probe 263 (0.6359 0.50332 0)
# Probe 264 (0.57941 0.62165 0)
# Probe 265 (0.55004 0.62884 0)
# Probe 266 (0.60917 0.61368 0)
# Probe 267 (0.57601 0.28946 0)
# Probe 268 (0.52409 0.2405 0)
# Probe 269 (0.66297 0.40072 0)
# Probe 270 (0.52941 0.60775 0)
# Probe 271 (0.52123 0.63593 0)
# Probe 272 (0.50114 0.61505 0)
# Probe 273 (0.38621 0.49767 0)
# Probe 274 (0.49284 0.64291 0)
# Probe 275 (0.51311 0.66458 0)
# Probe 276 (0.48391 0.67101 0)
# Probe 277 (0.46402 0.64898 0)
# Probe 278 (0.45511 0.67669 0)
# Probe 279 (0.43584 0.65532 0)
# Probe 280 (0.42704 0.68239 0)
# Probe 281 (0.40877 0.661 0)
# Probe 282 (0.35585 0.50726 0)
# Probe 283 (0.39935 0.68802 0)
# Probe 284 (0.38055 0.66699 0)
# Probe 285 (0.37168 0.69378 0)
# Probe 286 (0.35349 0.67226 0)
# Probe 287 (0.34392 0.69965 0)
# Probe 288 (0.60163 0.64441 0)
# Probe 289 (0.63397 0.63518 0)
# Probe 290 (0.32485 0.67834 0)
# Probe 291 (0.2752 0.48703 0)
# Probe 292 (0.30349 0.50204 0)
# Probe 293 (0.31531 0.70607 0)
# Probe 294 (0.44661 0.37497 0)
# Probe 295 (0.6246 0.66847 0)
# Probe 296 (0.65912 0.65854 0)
# Probe 297 (0.50438 0.69411 0)
# Probe 298 (0.29458 0.68398 0)
# Probe 299 (0.28455 0.71253 0)
# Probe 300 (0.41884 0.70959 0)
# Probe 301 (0.64903 0.69425 0)
# Probe 302 (0.33347 0.64721 0)
# Probe 303 (0.55355 0.52374 0)
# Probe 304 (0.68439 0.68402 0)
# Probe 305 (0.69335 0.6476 0)
# Probe 306 (0.58199 0.44995 0)
# Probe 307 (0.4183 0.63494 0)
# Probe 308 (0.55818 0.35832 0)
# Probe 309 (0.33505 0.72694 0)
# Probe 310 (0.44513 0.42633 0)
# Probe 311 (0.33515 0.5085 0)
# Probe 312 (0.4047 0.48715 0)
# Probe 313 (0.43839 0.35354 0)
# Probe 314 (0.25987 0.47267 0)
# Probe 315 (0.24605 0.45574 0)
# Probe 316 (0.72032 0.67384 0)
# Probe 317 (0.72909 0.63591 0)
# Probe 318 (0.6752 0.72024 0)
# Probe 319 (0.26307 0.68917 0)
# Probe 320 (0.25276 0.72055 0)
# Probe 321 (0.6385 0.73007 0)
# Probe 322 (0.52506 0.3253 0)
# Probe 323 (0.66528 0.75772 0)
# Probe 324 (0.62768 0.76698 0)
# Probe 325 (0.75683 0.66327 0)
# Probe 326 (0.76524 0.62508 0)
# Probe 327 (0.47549 0.19281 0)
# Probe 328 (0.23052 0.69507 0)
# Probe 329 (0.24096 0.66418 0)
# Probe 330 (0.21881 0.72821 0)
# Probe 331 (0.24228 0.75381 0)
# Probe 332 (0.49455 0.29629 0)
# Probe 333 (0.20903 0.6699 0)
# Probe 334 (0.21987 0.63883 0)
# Probe 335 (0.18771 0.64503 0)
# Probe 336 (0.19985 0.61573 0)
# Probe 337 (0.22799 0.61024 0)
# Probe 338 (0.21042 0.58921 0)
# Probe 339 (0.23496 0.58409 0)
# Probe 340 (0.21931 0.56487 0)
# Probe 341 (0.19474 0.56876 0)
# Probe 342 (0.20638 0.54357 0)
# Probe 343 (0.1688 0.61975 0)
# Probe 344 (0.24286 0.56163 0)
# Probe 345 (0.25738 0.57814 0)
# Probe 346 (0.20697 0.76269 0)
# Probe 347 (0.41518 0.16218 0)
# Probe 348 (0.17931 0.54895 0)
# Probe 349 (0.18827 0.52561 0)
# Probe 350 (0.73716 0.59883 0)
# Probe 351 (0.77286 0.58705 0)
# Probe 352 (0.74588 0.56147 0)
# Probe 353 (0.78125 0.54957 0)
# Probe 354 (0.75449 0.52423 0)
# Probe 355 (0.79077 0.51262 0)
# Probe 356 (0.45913 0.26502 0)
# Probe 357 (0.76325 0.48741 0)
# Probe 358 (0.79923 0.47582 0)
# Probe 359 (0.77206 0.45076 0)
# Probe 360 (0.80729 0.43901 0)
# Probe 361 (0.78032 0.41354 0)
# Probe 362 (0.1786 0.67398 0)
# Probe 363 (0.70291 0.74752 0)
# Probe 364 (0.69289 0.78639 0)
# Probe 365 (0.73246 0.77618 0)
# Probe 366 (0.23226 0.79036 0)
# Probe 367 (0.7951 0.64706 0)
# Probe 368 (0.26582 0.55522 0)
# Probe 369 (0.27792 0.57118 0)
# Probe 370 (0.25076 0.54341 0)
# Probe 371 (0.81575 0.402 0)
# Probe 372 (0.78712 0.37561 0)
# Probe 373 (0.81485 0.54298 0)
# Probe 374 (0.66983 0.37296 0)
# Probe 375 (0.62198 0.55747 0)
# Probe 376 (0.19507 0.79893 0)
# Probe 377 (0.40276 0.23742 0)
# Probe 378 (0.16947 0.76771 0)
# Probe 379 (0.50926 0.58841 0)
# Probe 380 (0.64813 0.45264 0)
# Probe 381 (0.16289 0.52937 0)
# Probe 382 (0.17276 0.50589 0)
# Probe 383 (0.31827 0.14778 0)
# Probe 384 (0.48336 0.59537 0)
# Probe 385 (0.48977 0.57133 0)
# Probe 386 (0.46723 0.57671 0)
# Probe 387 (0.47265 0.55547 0)
# Probe 388 (0.45252 0.56019 0)
# Probe 389 (0.45778 0.5408 0)
# Probe 390 (0.43844 0.54547 0)
# Probe 391 (0.47697 0.53542 0)
# Probe 392 (0.46282 0.52206 0)
# Probe 393 (0.48042 0.51651 0)
# Probe 394 (0.46544 0.50279 0)
# Probe 395 (0.48372 0.49857 0)
# Probe 396 (0.4332 0.56405 0)
# Probe 397 (0.41996 0.55043 0)
# Probe 398 (0.41456 0.56706 0)
# Probe 399 (0.4026 0.55414 0)
# Probe 400 (0.39676 0.57057 0)
# Probe 401 (0.38497 0.55791 0)
# Probe 402 (0.37918 0.57504 0)
# Probe 403 (0.36829 0.56194 0)
# Probe 404 (0.36146 0.57905 0)
# Probe 405 (0.35062 0.56302 0)
# Probe 406 (0.47187 0.48624 0)
# Probe 407 (0.48811 0.48181 0)
# Probe 408 (0.34344 0.58292 0)
# Probe 409 (0.47575 0.47085 0)
# Probe 410 (0.49165 0.4657 0)
# Probe 411 (0.50459 0.47689 0)
# Probe 412 (0.50844 0.45985 0)
# Probe 413 (0.49521 0.44836 0)
# Probe 414 (0.51176 0.4428 0)
# Probe 415 (0.49989 0.43158 0)
# Probe 416 (0.51528 0.42589 0)
# Probe 417 (0.50269 0.41572 0)
# Probe 418 (0.28676 0.55583 0)
# Probe 419 (0.82689 0.36494 0)
# Probe 420 (0.79529 0.33747 0)
# Probe 421 (0.19479 0.50421 0)
# Probe 422 (0.18406 0.48325 0)
# Probe 423 (0.15796 0.48604 0)
# Probe 424 (0.16841 0.4626 0)
# Probe 425 (0.44993 0.51105 0)
# Probe 426 (0.83642 0.32652 0)
# Probe 427 (0.80469 0.29919 0)
# Probe 428 (0.7655 0.31039 0)
# Probe 429 (0.77466 0.2726 0)
# Probe 430 (0.73702 0.28423 0)
# Probe 431 (0.74506 0.24696 0)
# Probe 432 (0.78276 0.23388 0)
# Probe 433 (0.7089 0.25888 0)
# Probe 434 (0.7165 0.22143 0)
# Probe 435 (0.68081 0.23329 0)
# Probe 436 (0.68823 0.1963 0)
# Probe 437 (0.653 0.20876 0)
# Probe 438 (0.72453 0.18361 0)
# Probe 439 (0.84389 0.28633 0)
# Probe 440 (0.27265 0.59099 0)
# Probe 441 (0.26196 0.2508 0)
# Probe 442 (0.29338 0.30144 0)
# Probe 443 (0.31022 0.22947 0)
# Probe 444 (0.52242 0.4718 0)
# Probe 445 (0.66034 0.17163 0)
# Probe 446 (0.62155 0.18852 0)
# Probe 447 (0.72191 0.81641 0)
# Probe 448 (0.76321 0.80532 0)
# Probe 449 (0.68098 0.82692 0)
# Probe 450 (0.85358 0.39461 0)
# Probe 451 (0.51793 0.40889 0)
# Probe 452 (0.50284 0.399 0)
# Probe 453 (0.14277 0.46512 0)
# Probe 454 (0.15255 0.55441 0)
# Probe 455 (0.22147 0.82929 0)
# Probe 456 (0.25887 0.81354 0)
# Probe 457 (0.15361 0.44065 0)
# Probe 458 (0.63214 0.1478 0)
# Probe 459 (0.59198 0.16348 0)
# Probe 460 (0.40769 0.53787 0)
# Probe 461 (0.17472 0.83696 0)
# Probe 462 (0.18953 0.45983 0)
# Probe 463 (0.37356 0.59188 0)
# Probe 464 (0.60434 0.12277 0)
# Probe 465 (0.56731 0.13432 0)
# Probe 466 (0.60094 0.73868 0)
# Probe 467 (0.58933 0.77522 0)
# Probe 468 (0.46093 0.47481 0)
# Probe 469 (0.48614 0.42028 0)
# Probe 470 (0.37389 0.54365 0)
# Probe 471 (0.77368 0.76449 0)
# Probe 472 (0.80526 0.79381 0)
# Probe 473 (0.81628 0.75217 0)
# Probe 474 (0.84077 0.46327 0)
# Probe 475 (0.39345 0.14283 0)
# Probe 476 (0.42113 0.13214 0)
# Probe 477 (0.4948 0.5298 0)
# Probe 478 (0.72719 0.50007 0)
# Probe 479 (0.1317 0.48953 0)
# Probe 480 (0.69135 0.39301 0)
# Probe 481 (0.79482 0.83664 0)
# Probe 482 (0.83823 0.82518 0)
# Probe 483 (0.53474 0.4181 0)
# Probe 484 (0.3313 0.5686 0)
# Probe 485 (0.3364 0.5515 0)
# Probe 486 (0.32447 0.58741 0)
# Probe 487 (0.64683 0.2456 0)
# Probe 488 (0.51816 0.4904 0)
# Probe 489 (0.58988 0.19466 0)
# Probe 490 (0.71067 0.85796 0)
# Probe 491 (0.46428 0.46074 0)
# Probe 492 (0.71038 0.57219 0)
# Probe 493 (0.42522 0.58064 0)
# Probe 494 (0.70026 0.29732 0)
# Probe 495 (0.53446 0.68714 0)
# Probe 496 (0.52471 0.71786 0)
# Probe 497 (0.49368 0.72532 0)
# Probe 498 (0.515 0.75034 0)
# Probe 499 (0.48262 0.75808 0)
# Probe 500 (0.50638 0.78442 0)
# Probe 501 (0.47005 0.79267 0)
# Probe 502 (0.49579 0.82048 0)
# Probe 503 (0.45851 0.82875 0)
# Probe 504 (0.43269 0.80029 0)
# Probe 505 (0.42077 0.83663 0)
# Probe 506 (0.39508 0.80774 0)
# Probe 507 (0.38286 0.84434 0)
# Probe 508 (0.35692 0.81513 0)
# Probe 509 (0.34445 0.85233 0)
# Probe 510 (0.11547 0.26544 0)
# Probe 511 (0.12645 0.44335 0)
# Probe 512 (0.52015 0.39179 0)
# Probe 513 (0.5076 0.38067 0)
# Probe 514 (0.49138 0.38576 0)
# Probe 515 (0.495 0.36964 0)
# Probe 516 (0.48011 0.37472 0)
# Probe 517 (0.48292 0.3596 0)
# Probe 518 (0.47641 0.38925 0)
# Probe 519 (0.41952 0.2507 0)
# Probe 520 (0.40078 0.25786 0)
# Probe 521 (0.41518 0.26928 0)
# Probe 522 (0.38536 0.24674 0)
# Probe 523 (0.38463 0.2669 0)
# Probe 524 (0.36974 0.25458 0)
# Probe 525 (0.6682 0.13464 0)
# Probe 526 (0.48474 0.85824 0)
# Probe 527 (0.52147 0.85376 0)
# Probe 528 (0.69768 0.36361 0)
# Probe 529 (0.25764 0.84907 0)
# Probe 530 (0.53775 0.48541 0)
# Probe 531 (0.51255 0.56521 0)
# Probe 532 (0.41001 0.87779 0)
# Probe 533 (0.66814 0.86911 0)
# Probe 534 (0.51318 0.36265 0)
# Probe 535 (0.69687 0.90362 0)
# Probe 536 (0.33662 0.60143 0)
# Probe 537 (0.31635 0.60716 0)
# Probe 538 (0.45958 0.59707 0)
# Probe 539 (0.82732 0.86957 0)
# Probe 540 (0.46722 0.36605 0)
# Probe 541 (0.47133 0.35048 0)
# Probe 542 (0.48542 0.34446 0)
# Probe 543 (0.47343 0.335 0)
# Probe 544 (0.48825 0.32943 0)
# Probe 545 (0.45811 0.34252 0)
# Probe 546 (0.46128 0.32609 0)
# Probe 547 (0.44774 0.33128 0)
# Probe 548 (0.44916 0.31651 0)
# Probe 549 (0.32 0.55483 0)
# Probe 550 (0.32476 0.53949 0)
# Probe 551 (0.33963 0.53577 0)
# Probe 552 (0.13859 0.41855 0)
# Probe 553 (0.1677 0.41801 0)
# Probe 554 (0.15143 0.39583 0)
# Probe 555 (0.17588 0.39527 0)
# Probe 556 (0.18929 0.41174 0)
# Probe 557 (0.19697 0.394 0)
# Probe 558 (0.18579 0.37766 0)
# Probe 559 (0.20925 0.40832 0)
# Probe 560 (0.20549 0.37711 0)
# Probe 561 (0.19629 0.36221 0)
# Probe 562 (0.20155 0.42522 0)
# Probe 563 (0.21346 0.36162 0)
# Probe 564 (0.2052 0.34747 0)
# Probe 565 (0.64037 0.83676 0)
# Probe 566 (0.62597 0.87877 0)
# Probe 567 (0.46368 0.31056 0)
# Probe 568 (0.45107 0.30119 0)
# Probe 569 (0.43677 0.30738 0)
# Probe 570 (0.43849 0.29207 0)
# Probe 571 (0.51192 0.89007 0)
# Probe 572 (0.11104 0.41927 0)
# Probe 573 (0.09829 0.44646 0)
# Probe 574 (0.42416 0.29907 0)
# Probe 575 (0.54066 0.46628 0)
# Probe 576 (0.22248 0.34712 0)
# Probe 577 (0.21344 0.33307 0)
# Probe 578 (0.25956 0.32685 0)
# Probe 579 (0.45122 0.46466 0)
# Probe 580 (0.4474 0.4779 0)
# Probe 581 (0.68436 0.42264 0)
# Probe 582 (0.71368 0.4143 0)
# Probe 583 (0.40731 0.77313 0)
# Probe 584 (0.87733 0.31595 0)
# Probe 585 (0.88508 0.27387 0)
# Probe 586 (0.8523 0.24412 0)
# Probe 587 (0.64064 0.60372 0)
# Probe 588 (0.57731 0.0965 0)
# Probe 589 (0.53844 0.10791 0)
# Probe 590 (0.53198 0.14462 0)
# Probe 591 (0.50564 0.12116 0)
# Probe 592 (0.17743 0.36101 0)
# Probe 593 (0.67555 0.34514 0)
# Probe 594 (0.39676 0.11054 0)
# Probe 595 (0.43025 0.10277 0)
# Probe 596 (0.59192 0.67653 0)
# Probe 597 (0.87189 0.85742 0)
# Probe 598 (0.89222 0.22979 0)
# Probe 599 (0.86079 0.19975 0)
# Probe 600 (0.36829 0.27323 0)
# Probe 601 (0.35421 0.26125 0)
# Probe 602 (0.35559 0.24412 0)
# Probe 603 (0.33985 0.25161 0)
# Probe 604 (0.34146 0.2334 0)
# Probe 605 (0.34483 0.13604 0)
# Probe 606 (0.31951 0.11636 0)
# Probe 607 (0.2285 0.33216 0)
# Probe 608 (0.22078 0.31844 0)
# Probe 609 (0.23728 0.31834 0)
# Probe 610 (0.22891 0.30414 0)
# Probe 611 (0.24607 0.30509 0)
# Probe 612 (0.23698 0.28928 0)
# Probe 613 (0.25388 0.2895 0)
# Probe 614 (0.20401 0.31793 0)
# Probe 615 (0.44123 0.15536 0)
# Probe 616 (0.74098 0.88961 0)
# Probe 617 (0.59898 0.84579 0)
# Probe 618 (0.58261 0.8853 0)
# Probe 619 (0.38036 0.28051 0)
# Probe 620 (0.30968 0.54209 0)
# Probe 621 (0.31456 0.52809 0)
# Probe 622 (0.30038 0.53011 0)
# Probe 623 (0.88347 0.81166 0)
# Probe 624 (0.70572 0.44512 0)
# Probe 625 (0.61406 0.08346 0)
# Probe 626 (0.13388 0.53284 0)
# Probe 627 (0.12326 0.56313 0)
# Probe 628 (0.29008 0.13039 0)
# Probe 629 (0.29225 0.09555 0)
# Probe 630 (0.26208 0.10696 0)
# Probe 631 (0.33902 0.26773 0)
# Probe 632 (0.32483 0.25923 0)
# Probe 633 (0.74949 0.69898 0)
# Probe 634 (0.43764 0.46811 0)
# Probe 635 (0.43507 0.48092 0)
# Probe 636 (0.32458 0.27502 0)
# Probe 637 (0.31092 0.2664 0)
# Probe 638 (0.92297 0.2551 0)
# Probe 639 (0.24555 0.27456 0)
# Probe 640 (0.46596 0.29458 0)
# Probe 641 (0.49943 0.33899 0)
# Probe 642 (0.45496 0.45182 0)
# Probe 643 (0.46676 0.44688 0)
# Probe 644 (0.10153 0.53572 0)
# Probe 645 (0.08828 0.56852 0)
# Probe 646 (0.11219 0.59694 0)
# Probe 647 (0.07423 0.6028 0)
# Probe 648 (0.09898 0.62752 0)
# Probe 649 (0.32847 0.08133 0)
# Probe 650 (0.29686 0.56706 0)
# Probe 651 (0.04372 0.2867 0)
# Probe 652 (0.46269 0.72927 0)
# Probe 653 (0.32024 0.82327 0)
# Probe 654 (0.3328 0.78174 0)
# Probe 655 (0.3282 0.52574 0)
# Probe 656 (0.31916 0.5163 0)
# Probe 657 (0.47297 0.89923 0)
# Probe 658 (0.55709 0.47869 0)
# Probe 659 (0.55231 0.71254 0)
# Probe 660 (0.45791 0.43939 0)
# Probe 661 (0.46892 0.43364 0)
# Probe 662 (0.29943 0.86267 0)
# Probe 663 (0.33098 0.89113 0)
# Probe 664 (0.75019 0.38779 0)
# Probe 665 (0.49937 0.15563 0)
# Probe 666 (0.52584 0.17732 0)
# Probe 667 (0.43159 0.26312 0)
# Probe 668 (0.30549 0.51551 0)
# Probe 669 (0.2919 0.5185 0)
# Probe 670 (0.28565 0.53027 0)
# Probe 671 (0.27801 0.51791 0)
# Probe 672 (0.28396 0.50565 0)
# Probe 673 (0.27036 0.50592 0)
# Probe 674 (0.2635 0.51742 0)
# Probe 675 (0.25662 0.50473 0)
# Probe 676 (0.2486 0.51763 0)
# Probe 677 (0.2415 0.50424 0)
# Probe 678 (0.23247 0.51816 0)
# Probe 679 (0.24975 0.4919 0)
# Probe 680 (0.2347 0.49056 0)
# Probe 681 (0.2429 0.48021 0)
# Probe 682 (0.22821 0.4768 0)
# Probe 683 (0.34022 0.51998 0)
# Probe 684 (0.35366 0.52875 0)
# Probe 685 (0.44323 0.49002 0)
# Probe 686 (0.42883 0.49318 0)
# Probe 687 (0.21323 0.39125 0)
# Probe 688 (0.21636 0.42289 0)
# Probe 689 (0.21066 0.43773 0)
# Probe 690 (0.22329 0.41236 0)
# Probe 691 (0.29021 0.90399 0)
# Probe 692 (0.53397 0.50627 0)
# Probe 693 (0.35091 0.54442 0)
# Probe 694 (0.28799 0.23876 0)
# Probe 695 (0.28288 0.26033 0)
# Probe 696 (0.13618 0.35135 0)
# Probe 697 (0.2152 0.28942 0)
# Probe 698 (0.45656 0.4253 0)
# Probe 699 (0.40006 0.2755 0)
# Probe 700 (0.55566 0.16825 0)
# Probe 701 (0.54614 0.19831 0)
# Probe 702 (0.2961 0.05525 0)
# Probe 703 (0.21924 0.48926 0)
# Probe 704 (0.58738 0.05461 0)
# Probe 705 (0.54495 0.77405 0)
# Probe 706 (0.35226 0.2786 0)
# Probe 707 (0.39088 0.54157 0)
# Probe 708 (0.38175 0.52846 0)
# Probe 709 (0.39679 0.52635 0)
# Probe 710 (0.41148 0.5231 0)
# Probe 711 (0.40204 0.5126 0)
# Probe 712 (0.41526 0.50976 0)
# Probe 713 (0.42498 0.51878 0)
# Probe 714 (0.38896 0.51577 0)
# Probe 715 (0.37535 0.51471 0)
# Probe 716 (0.30484 0.59272 0)
# Probe 717 (0.29621 0.61277 0)
# Probe 718 (0.31117 0.63013 0)
# Probe 719 (0.28451 0.63486 0)
# Probe 720 (0.07169 0.39212 0)
# Probe 721 (0.46632 0.38023 0)
# Probe 722 (0.46246 0.39198 0)
# Probe 723 (0.46957 0.40321 0)
# Probe 724 (0.48509 0.39989 0)
# Probe 725 (0.26116 0.30225 0)
# Probe 726 (0.27051 0.2879 0)
# Probe 727 (0.51859 0.20921 0)
# Probe 728 (0.17686 0.44168 0)
# Probe 729 (0.21909 0.38046 0)
# Probe 730 (0.32274 0.93248 0)
# Probe 731 (0.24392 0.91561 0)
# Probe 732 (0.0459 0.5734 0)
# Probe 733 (0.44334 0.52733 0)
# Probe 734 (0.03777 0.47424 0)
# Probe 735 (0.25199 0.63251 0)
# Probe 736 (0.4121 0.28596 0)
# Probe 737 (0.39716 0.29164 0)
# Probe 738 (0.21287 0.47385 0)
# Probe 739 (0.22363 0.46023 0)
# Probe 740 (0.50971 0.30832 0)
# Probe 741 (0.67315 0.26944 0)
# Probe 742 (0.63971 0.27845 0)
# Probe 743 (0.61537 0.25636 0)
# Probe 744 (0.66325 0.29932 0)
# Probe 745 (0.62068 0.22528 0)
# Probe 746 (0.59191 0.23885 0)
# Probe 747 (0.60884 0.2883 0)
# Probe 748 (0.51365 0.50921 0)
# Probe 749 (0.52748 0.5255 0)
# Probe 750 (0.5433 0.54413 0)
# Probe 751 (0.45452 0.38362 0)
# Probe 752 (0.23042 0.5458 0)
# Probe 753 (0.07456 0.50161 0)
# Probe 754 (0.54217 0.34267 0)
# Probe 755 (0.53687 0.36402 0)
# Probe 756 (0.55253 0.37982 0)
# Probe 757 (0.22726 0.35951 0)
# Probe 758 (0.38163 0.22323 0)
# Probe 759 (0.42445 0.31614 0)
# Probe 760 (0.43689 0.32256 0)
# Probe 761 (0.43623 0.33445 0)
# Probe 762 (0.44424 0.63068 0)
# Probe 763 (0.42672 0.61425 0)
# Probe 764 (0.40182 0.61577 0)
# Probe 765 (0.39247 0.63968 0)
# Probe 766 (0.36599 0.6436 0)
# Probe 767 (0.37931 0.62275 0)
# Probe 768 (0.34805 0.63011 0)
# Probe 769 (0.73096 0.3213 0)
# Probe 770 (0.75913 0.34767 0)
# Probe 771 (0.71924 0.53598 0)
# Probe 772 (0.68581 0.54583 0)
# Probe 773 (0.69337 0.51211 0)
# Probe 774 (0.67175 0.58276 0)
# Probe 775 (0.43291 0.45621 0)
# Probe 776 (0.44132 0.43643 0)
# Probe 777 (0.44966 0.3938 0)
# Probe 778 (0.34535 0.50837 0)
# Probe 779 (0.36608 0.50586 0)
# Probe 780 (0.41278 0.4803 0)
# Probe 781 (0.41548 0.49051 0)
# Probe 782 (0.40684 0.49948 0)
# Probe 783 (0.37651 0.50204 0)
# Probe 784 (0.44286 0.36376 0)
# Probe 785 (0.44892 0.3546 0)
# Probe 786 (0.45379 0.36532 0)
# Probe 787 (0.90195 0.18604 0)
# Probe 788 (0.86941 0.15473 0)
# Probe 789 (0.82654 0.16913 0)
# Probe 790 (0.83535 0.12429 0)
# Probe 791 (0.79188 0.13793 0)
# Probe 792 (0.87978 0.11255 0)
# Probe 793 (0.7809 0.184 0)
# Probe 794 (0.80181 0.09311 0)
# Probe 795 (0.75754 0.10716 0)
# Probe 796 (0.76622 0.06391 0)
# Probe 797 (0.7206 0.0774 0)
# Probe 798 (0.71208 0.12024 0)
# Probe 799 (0.29366 0.49797 0)
# Probe 800 (0.57417 0.37479 0)
# Probe 801 (0.56642 0.39586 0)
# Probe 802 (0.54665 0.39966 0)
# Probe 803 (0.55713 0.41593 0)
# Probe 804 (0.54789 0.43533 0)
# Probe 805 (0.58045 0.41263 0)
# Probe 806 (0.4746 0.27525 0)
# Probe 807 (0.29573 0.79756 0)
# Probe 808 (0.30093 0.76376 0)
# Probe 809 (0.53363 0.58208 0)
# Probe 810 (0.44753 0.4163 0)
# Probe 811 (0.45803 0.41132 0)
# Probe 812 (0.47058 0.41869 0)
# Probe 813 (0.86007 0.90906 0)
# Probe 814 (0.81151 0.91569 0)
# Probe 815 (0.37141 0.77925 0)
# Probe 816 (0.3844 0.74708 0)
# Probe 817 (0.26718 0.48032 0)
# Probe 818 (0.26432 0.49285 0)
# Probe 819 (0.28405 0.49316 0)
# Probe 820 (0.04215 0.17425 0)
# Probe 821 (0.08331 0.15005 0)
# Probe 822 (0.08623 0.10587 0)
# Probe 823 (0.12404 0.1273 0)
# Probe 824 (0.12349 0.1709 0)
# Probe 825 (0.16167 0.15489 0)
# Probe 826 (0.16088 0.10976 0)
# Probe 827 (0.19396 0.13188 0)
# Probe 828 (0.1958 0.08564 0)
# Probe 829 (0.08247 0.19735 0)
# Probe 830 (0.11914 0.21177 0)
# Probe 831 (0.15036 0.19474 0)
# Probe 832 (0.40863 0.29963 0)
# Probe 833 (0.08928 0.23794 0)
# Probe 834 (0.42175 0.95797 0)
# Probe 835 (0.23317 0.41598 0)
# Probe 836 (0.23764 0.43654 0)
# Probe 837 (0.39673 0.30561 0)
# Probe 838 (0.37674 0.29777 0)
# Probe 839 (0.26465 0.53943 0)
# Probe 840 (0.30327 0.29778 0)
# Probe 841 (0.29419 0.28938 0)
# Probe 842 (0.28385 0.3065 0)
# Probe 843 (0.17522 0.04105 0)
# Probe 844 (0.24203 0.35279 0)
# Probe 845 (0.2312 0.38267 0)
# Probe 846 (0.2113 0.51889 0)
# Probe 847 (0.43801 0.24424 0)
# Probe 848 (0.3244 0.29268 0)
# Probe 849 (0.36633 0.29487 0)
# Probe 850 (0.34539 0.29061 0)
# Probe 851 (0.41278 0.3197 0)
# Probe 852 (0.30429 0.65616 0)
# Probe 853 (0.42342 0.03948 0)
# Probe 854 (0.47309 0.03725 0)
# Probe 855 (0.50031 0.07854 0)
# Probe 856 (0.46865 0.10544 0)
# Probe 857 (0.04288 0.72295 0)
# Probe 858 (0.082 0.70062 0)
# Probe 859 (0.08384 0.74536 0)
# Probe 860 (0.119 0.72192 0)
# Probe 861 (0.11897 0.67981 0)
# Probe 862 (0.04332 0.77183 0)
# Probe 863 (0.08629 0.79274 0)
# Probe 864 (0.09148 0.83925 0)
# Probe 865 (0.12823 0.8163 0)
# Probe 866 (0.13342 0.85988 0)
# Probe 867 (0.17178 0.88528 0)
# Probe 868 (0.13044 0.90052 0)
# Probe 869 (0.05308 0.87285 0)
# Probe 870 (0.26736 0.31986 0)
# Probe 871 (0.25671 0.3149 0)
# Probe 872 (0.25266 0.33472 0)
# Probe 873 (0.44461 0.76002 0)
# Probe 874 (0.47034 0.62025 0)
# Probe 875 (0.2522 0.46439 0)
# Probe 876 (0.24203 0.44634 0)
# Probe 877 (0.23061 0.44581 0)
# Probe 878 (0.91027 0.88886 0)
# Probe 879 (0.70089 0.60655 0)
# Probe 880 (0.6333 0.30846 0)
# Probe 881 (0.68003 0.09264 0)
# Probe 882 (0.66058 0.52227 0)
# Probe 883 (0.66761 0.49015 0)
# Probe 884 (0.52433 0.95877 0)
# Probe 885 (0.57747 0.95871 0)
# Probe 886 (0.04853 0.07604 0)
# Probe 887 (0.68349 0.95447 0)
# Probe 888 (0.44414 0.34322 0)
# Probe 889 (0.22571 0.43395 0)
# Probe 890 (0.95807 0.37489 0)
# Probe 891 (0.9126 0.35186 0)
# Probe 892 (0.91776 0.40336 0)
# Probe 893 (0.95821 0.42536 0)
# Probe 894 (0.91728 0.4506 0)
# Probe 895 (0.9161 0.49666 0)
# Probe 896 (0.95712 0.52203 0)
# Probe 897 (0.91488 0.54233 0)
# Probe 898 (0.87734 0.51783 0)
# Probe 899 (0.87677 0.56217 0)
# Probe 900 (0.91066 0.58643 0)
# Probe 901 (0.87177 0.60591 0)
# Probe 902 (0.83493 0.58155 0)
# Probe 903 (0.90901 0.634 0)
# Probe 904 (0.86939 0.65087 0)
# Probe 905 (0.90526 0.677 0)
# Probe 906 (0.86621 0.69493 0)
# Probe 907 (0.90243 0.71989 0)
# Probe 908 (0.93896 0.69962 0)
# Probe 909 (0.83389 0.62809 0)
# Probe 910 (0.73606 0.46365 0)
# Probe 911 (0.732 0.93213 0)
# Probe 912 (0.7013 0.47782 0)
# Probe 913 (0.47974 0.44272 0)
# Probe 914 (0.24012 0.46658 0)
# Probe 915 (0.52186 0.34556 0)
# Probe 916 (0.95656 0.57096 0)
# Probe 917 (0.30947 0.24922 0)
# Probe 918 (0.85952 0.73755 0)
# Probe 919 (0.39572 0.49296 0)
# Probe 920 (0.65376 0.91436 0)
# Probe 921 (0.19185 0.16679 0)
# Probe 922 (0.22648 0.15439 0)
# Probe 923 (0.88073 0.47559 0)
# Probe 924 (0.8767 0.42923 0)
# Probe 925 (0.26003 0.27729 0)
# Probe 926 (0.39819 0.91871 0)
# Probe 927 (0.31158 0.28026 0)
# Probe 928 (0.29786 0.27484 0)
# Probe 929 (0.28392 0.2797 0)
# Probe 930 (0.12652 0.3935 0)
# Probe 931 (0.12664 0.94913 0)
# Probe 932 (0.90141 0.76653 0)
# Probe 933 (0.36303 0.28421 0)
# Probe 934 (0.95855 0.82351 0)
# Probe 935 (0.87134 0.04127 0)
# Probe 936 (0.95731 0.12408 0)
# Probe 937 (0.36223 0.51661 0)
# Probe 938 (0.62977 0.04226 0)
# Probe 939 (0.92442 0.96179 0)
# Probe 940 (0.78145 0.72505 0)
# Probe 941 (0.42705 0.46456 0)
# Probe 942 (0.42708 0.28095 0)
# Probe 943 (0.18288 0.5931 0)
# Probe 944 (0.14946 0.5887 0)
# Probe 945 (0.13552 0.62163 0)
# Probe 946 (0.95998 0.22998 0)
# Probe 947 (0.54995 0.91851 0)
# Probe 948 (0.27196 0.66025 0)
# Probe 949 (0.55527 0.50172 0)
# Probe 950 (0.12812 0.76976 0)
# Probe 951 (0.47424 0.69996 0)
# Probe 952 (0.42357 0.48178 0)
# Probe 953 (0.31396 0.50572 0)
# Probe 954 (0.74488 0.42728 0)
# Probe 955 (0.03993 0.63083 0)
# Probe 956 (0.22205 0.9584 0)
# Probe 957 (0.42336 0.53443 0)
# Probe 958 (0.5904 0.39281 0)
# Probe 959 (0.40446 0.07561 0)
# Probe 960 (0.36759 0.08681 0)
# Probe 961 (0.91964 0.30117 0)
# Probe 962 (0.41006 0.59565 0)
# Probe 963 (0.45741 0.48915 0)
# Probe 964 (0.66909 0.62223 0)
# Probe 965 (0.74686 0.14931 0)
# Probe 966 (0.49266 0.21041 0)
# Probe 967 (0.25216 0.60198 0)
# Probe 968 (0.27431 0.61174 0)
# Probe 969 (0.2754 0.74286 0)
# Probe 970 (0.07638 0.03826 0)
# Probe 971 (0.65317 0.55224 0)