# Probe 0 (0 0 0)
# Probe 1 (1 0 0)
# Probe 2 (1 1 0)
# Probe 3 (0 1 0)
# Probe 4 (0.33 0.56 0)
# Probe 5 (0.23 0.46 0)
# Probe 6 (0.13 0.56 0)
# Probe 7 (0.23 0.66 0)
# Probe 8 (0.05 0 0)
# Probe 9 (0.1 0 0)
# Probe 10 (0.15 0 0)
# Probe 11 (0.2 0 0)
# Probe 12 (0.25 0 0)
# Probe 13 (0.3 0 0)
# Probe 14 (0.35 0 0)
# Probe 15 (0.4 0 0)
# Probe 16 (0.45 0 0)
# Probe 17 (0.5 0 0)
# Probe 18 (0.55 0 0)
# Probe 19 (0.6 0 0)
# Probe 20 (0.65 0 0)
# Probe 21 (0.7 0 0)
# Probe 22 (0.75 0 0)
# Probe 23 (0.8 0 0)
# Probe 24 (0.85 0 0)
# Probe 25 (0.9 0 0)
# Probe 26 (0.95 0 0)
# Probe 27 (1 0.05 0)
# Probe 28 (1 0.1 0)
# Probe 29 (1 0.15 0)
# Probe 30 (1 0.2 0)
# Probe 31 (1 0.25 0)
# Probe 32 (1 0.3 0)
# Probe 33 (1 0.35 0)
# Probe 34 (1 0.4 0)
# Probe 35 (1 0.45 0)
# Probe 36 (1 0.5 0)
# Probe 37 (1 0.55 0)
# Probe 38 (1 0.6 0)
# Probe 39 (1 0.65 0)
# Probe 40 (1 0.7 0)
# Probe 41 (1 0.75 0)
# Probe 42 (1 0.8 0)
# Probe 43 (1 0.85 0)
# Probe 44 (1 0.9 0)
# Probe 45 (1 0.95 0)
# Probe 46 (0.95 1 0)
# Probe 47 (0.9 1 0)
# Probe 48 (0.85 1 0)
# Probe 49 (0.8 1 0)
# Probe 50 (0.75 1 0)
# Probe 51 (0.7 1 0)
# Probe 52 (0.65 1 0)
# Probe 53 (0.6 1 0)
# Probe 54 (0.55 1 0)
# Probe 55 (0.5 1 0)
# Probe 56 (0.45 1 0)
# Probe 57 (0.4 1 0)
# Probe 58 (0.35 1 0)
# Probe 59 (0.3 1 0)
# Probe 60 (0.25 1 0)
# Probe 61 (0.2 1 0)
# Probe 62 (0.15 1 0)
# Probe 63 (0.1 1 0)
# Probe 64 (0.05 1 0)
# Probe 65 (0 0.95 0)
# Probe 66 (0 0.9 0)
# Probe 67 (0 0.85 0)
# Probe 68 (0 0.8 0)
# Probe 69 (0 0.75 0)
# Probe 70 (0 0.7 0)
# Probe 71 (0 0.65 0)
# Probe 72 (0 0.6 0)
# Probe 73 (0 0.55 0)
# Probe 74 (0 0.5 0)
# Probe 75 (0 0.45 0)
# Probe 76 (0 0.4 0)
# Probe 77 (0 0.35 0)
# Probe 78 (0 0.3 0)
# Probe 79 (0 0.25 0)
# Probe 80 (0 0.2 0)
# Probe 81 (0 0.15 0)
# Probe 82 (0 0.1 0)
# Probe 83 (0 0.05 0)
# Probe 84 (0.32952 0.5502 0)
# Probe 85 (0.32808 0.54049 0)
# Probe 86 (0.32569 0.53097 0)
# Probe 87 (0.32239 0.52173 0)
# Probe 88 (0.31819 0.51286 0)
# Probe 89 (0.31315 0.50444 0)
# Probe 90 (0.3073 0.49656 0)
# Probe 91 (0.30071 0.48929 0)
# Probe 92 (0.29344 0.4827 0)
# Probe 93 (0.28556 0.47685 0)
# Probe 94 (0.27714 0.47181 0)
# Probe 95 (0.26827 0.46761 0)
# Probe 96 (0.25903 0.46431 0)
# Probe 97 (0.24951 0.46192 0)
# Probe 98 (0.2398 0.46048 0)
# Probe 99 (0.2202 0.46048 0)
# Probe 100 (0.21049 0.46192 0)
# Probe 101 (0.20097 0.46431 0)
# Probe 102 (0.19173 0.46761 0)
# Probe 103 (0.18286 0.47181 0)
# Probe 104 (0.17444 0.47685 0)
# Probe 105 (0.16656 0.4827 0)
# Probe 106 (0.15929 0.48929 0)
# Probe 107 (0.1527 0.49656 0)
# Probe 108 (0.14685 0.50444 0)
# Probe 109 (0.14181 0.51286 0)
# Probe 110 (0.13761 0.52173 0)
# Probe 111 (0.13431 0.53097 0)
# Probe 112 (0.13192 0.54049 0)
# Probe 113 (0.13048 0.5502 0)
# Probe 114 (0.13048 0.5698 0)
# Probe 115 (0.13192 0.57951 0)
# Probe 116 (0.13431 0.58903 0)
# Probe 117 (0.13761 0.59827 0)
# Probe 118 (0.14181 0.60714 0)
# Probe 119 (0.14685 0.61556 0)
# Probe 120 (0.1527 0.62344 0)
# Probe 121 (0.15929 0.63071 0)
# Probe 122 (0.16656 0.6373 0)
# Probe 123 (0.17444 0.64315 0)
# Probe 124 (0.18286 0.64819 0)
# Probe 125 (0.19173 0.65239 0)
# Probe 126 (0.20097 0.65569 0)
# Probe 127 (0.21049 0.65808 0)
# Probe 128 (0.2202 0.65952 0)
# Probe 129 (0.2398 0.65952 0)
# Probe 130 (0.24951 0.65808 0)
# Probe 131 (0.25903 0.65569 0)
# Probe 132 (0.26827 0.65239 0)
# Probe 133 (0.27714 0.64819 0)
# Probe 134 (0.28556 0.64315 0)
# Probe 135 (0.29344 0.6373 0)
# Probe 136 (0.30071 0.63071 0)
# Probe 137 (0.3073 0.62344 0)
# Probe 138 (0.31315 0.61556 0)
# Probe 139 (0.31819 0.60714 0)
# Probe 140 (0.32239 0.59827 0)
# Probe 141 (0.32569 0.58903 0)
# Probe 142 (0.32808 0.57951 0)
# Probe 143 (0.32952 0.5698 0)
# Probe 144 (0.95937 0.37226 0)
# Probe 145 (0.95963 0.62614 0)
# Probe 146 (0.57473 0.04316 0)
# Probe 147 (0.61755 0.95236 0)
# Probe 148 (0.42611 0.04245 0)
# Probe 149 (0.27095 0.03906 0)
# Probe 150 (0.47082 0.95612 0)
# Probe 151 (0.71893 0.03926 0)
# Probe 152 (0.04252 0.27942 0)
# Probe 153 (0.3269 0.9555 0)
# Probe 154 (0.18125 0.95244 0)
# Probe 155 (0.95636 0.78093 0)
# Probe 156 (0.15565 0.4793 0)
# Probe 157 (0.95876 0.22428 0)
# Probe 158 (0.14945 0.63301 0)
# Probe 159 (0.7782 0.96057 0)
# Probe 160 (0.04551 0.77187 0)
# Probe 161 (0.14354 0.49571 0)
# Probe 162 (0.13678 0.61599 0)
# Probe 163 (0.16532 0.64743 0)
# Probe 164 (0.13147 0.51314 0)
# Probe 165 (0.12697 0.59724 0)
# Probe 166 (0.12415 0.53384 0)
# Probe 167 (0.12198 0.57637 0)
# Probe 168 (0.12175 0.55468 0)
# Probe 169 (0.0366 0.37671 0)
# Probe 170 (0.04411 0.17023 0)
# Probe 171 (0.17707 0.04254 0)
# Probe 172 (0.96085 0.52328 0)
# Probe 173 (0.82262 0.04325 0)
# Probe 174 (0.87492 0.95794 0)
# Probe 175 (0.04552 0.87337 0)
# Probe 176 (0.0433 0.675 0)
# Probe 177 (0.95698 0.12546 0)
# Probe 178 (0.03806 0.47924 0)
# Probe 179 (0.96335 0.86622 0)
# Probe 180 (0.03888 0.57316 0)
# Probe 181 (0.04724 0.07488 0)
# Probe 182 (0.07534 0.95112 0)
# Probe 183 (0.92668 0.04294 0)
# Probe 184 (0.04064 0.52039 0)
# Probe 185 (0.07475 0.49857 0)
# Probe 186 (0.0753 0.47401 0)
# Probe 187 (0.06339 0.53503 0)
# Probe 188 (0.10369 0.48069 0)
# Probe 189 (0.10317 0.45599 0)
# Probe 190 (0.08238 0.43772 0)
# Probe 191 (0.10804 0.42994 0)
# Probe 192 (0.12634 0.44579 0)
# Probe 193 (0.13132 0.42233 0)
# Probe 194 (0.19356 0.45816 0)
# Probe 195 (0.17423 0.46662 0)
# Probe 196 (0.11361 0.40479 0)
# Probe 197 (0.13802 0.39809 0)
# Probe 198 (0.11999 0.37884 0)
# Probe 199 (0.14591 0.37297 0)
# Probe 200 (0.1642 0.39214 0)
# Probe 201 (0.17193 0.36725 0)
# Probe 202 (0.22486 0.45043 0)
# Probe 203 (0.15428 0.34807 0)
# Probe 204 (0.17997 0.34328 0)
# Probe 205 (0.19697 0.36202 0)
# Probe 206 (0.20413 0.33923 0)
# Probe 207 (0.2207 0.35751 0)
# Probe 208 (0.22837 0.3315 0)
# Probe 209 (0.24535 0.35318 0)
# Probe 210 (0.25353 0.33019 0)
# Probe 211 (0.26937 0.34846 0)
# Probe 212 (0.2774 0.32588 0)
# Probe 213 (0.29329 0.34417 0)
# Probe 214 (0.30244 0.31998 0)
# Probe 215 (0.31677 0.33951 0)
# Probe 216 (0.32626 0.31633 0)
# Probe 217 (0.34185 0.33551 0)
# Probe 218 (0.35066 0.30977 0)
# Probe 219 (0.36826 0.33129 0)
# Probe 220 (0.29427 0.47343 0)
# Probe 221 (0.37543 0.30538 0)
# Probe 222 (0.3943 0.32768 0)
# Probe 223 (0.38632 0.35285 0)
# Probe 224 (0.41189 0.34938 0)
# Probe 225 (0.41954 0.32391 0)
# Probe 226 (0.43794 0.34548 0)
# Probe 227 (0.42862 0.37109 0)
# Probe 228 (0.45505 0.36697 0)
# Probe 229 (0.44507 0.39207 0)
# Probe 230 (0.47156 0.38832 0)
# Probe 231 (0.46138 0.41337 0)
# Probe 232 (0.48807 0.40975 0)
# Probe 233 (0.47776 0.43496 0)
# Probe 234 (0.50474 0.43135 0)
# Probe 235 (0.49463 0.4564 0)
# Probe 236 (0.52168 0.45315 0)
# Probe 237 (0.51136 0.47862 0)
# Probe 238 (0.53543 0.42921 0)
# Probe 239 (0.53861 0.47541 0)
# Probe 240 (0.52791 0.50239 0)
# Probe 241 (0.55676 0.49842 0)
# Probe 242 (0.54515 0.5259 0)
# Probe 243 (0.33661 0.54439 0)
# Probe 244 (0.57547 0.52219 0)
# Probe 245 (0.56308 0.55148 0)
# Probe 246 (0.32787 0.51371 0)
# Probe 247 (0.46509 0.34064 0)
# Probe 248 (0.59492 0.54714 0)
# Probe 249 (0.60709 0.51737 0)
# Probe 250 (0.58232 0.57664 0)
# Probe 251 (0.55042 0.58091 0)
# Probe 252 (0.56893 0.60589 0)
# Probe 253 (0.53804 0.60952 0)
# Probe 254 (0.33737 0.57493 0)
# Probe 255 (0.60059 0.6012 0)
# Probe 256 (0.55596 0.63465 0)
# Probe 257 (0.52565 0.63829 0)
# Probe 258 (0.54405 0.66358 0)
# Probe 259 (0.51386 0.66667 0)
# Probe 260 (0.3296 0.60836 0)
# Probe 261 (0.26287 0.30919 0)
# Probe 262 (0.1888 0.31841 0)
# Probe 263 (0.33381 0.29185 0)
# Probe 264 (0.50308 0.50541 0)
# Probe 265 (0.53142 0.69208 0)
# Probe 266 (0.50096 0.69567 0)
# Probe 267 (0.5635 0.68917 0)
# Probe 268 (0.26668 0.45758 0)
# Probe 269 (0.499 0.64223 0)
# Probe 270 (0.43586 0.41703 0)
# Probe 271 (0.52363 0.72402 0)
# Probe 272 (0.48754 0.72621 0)
# Probe 273 (0.31705 0.49544 0)
# Probe 274 (0.31705 0.62456 0)
# Probe 275 (0.2459 0.45279 0)
# Probe 276 (0.30946 0.3613 0)
# Probe 277 (0.50659 0.75284 0)
# Probe 278 (0.47191 0.75732 0)
# Probe 279 (0.4525 0.72511 0)
# Probe 280 (0.43828 0.75901 0)
# Probe 281 (0.42159 0.73249 0)
# Probe 282 (0.29456 0.64705 0)
# Probe 283 (0.4086 0.76058 0)
# Probe 284 (0.39208 0.73817 0)
# Probe 285 (0.38004 0.76279 0)
# Probe 286 (0.40379 0.71408 0)
# Probe 287 (0.36404 0.74199 0)
# Probe 288 (0.35276 0.76518 0)
# Probe 289 (0.22384 0.66846 0)
# Probe 290 (0.2564 0.66507 0)
# Probe 291 (0.27616 0.65765 0)
# Probe 292 (0.20339 0.66534 0)
# Probe 293 (0.18366 0.65797 0)
# Probe 294 (0.33544 0.74061 0)
# Probe 295 (0.32614 0.76714 0)
# Probe 296 (0.39309 0.78572 0)
# Probe 297 (0.31035 0.74663 0)
# Probe 298 (0.3008 0.76934 0)
# Probe 299 (0.28529 0.74573 0)
# Probe 300 (0.27714 0.77187 0)
# Probe 301 (0.26151 0.75162 0)
# Probe 302 (0.2528 0.77515 0)
# Probe 303 (0.23826 0.75457 0)
# Probe 304 (0.22766 0.7761 0)
# Probe 305 (0.21463 0.75713 0)
# Probe 306 (0.24375 0.80149 0)
# Probe 307 (0.20469 0.78038 0)
# Probe 308 (0.18873 0.75473 0)
# Probe 309 (0.34932 0.72144 0)
# Probe 310 (0.31582 0.79313 0)
# Probe 311 (0.17523 0.78258 0)
# Probe 312 (0.261 0.37081 0)
# Probe 313 (0.49164 0.78592 0)
# Probe 314 (0.5274 0.78162 0)
# Probe 315 (0.46711 0.45986 0)
# Probe 316 (0.62758 0.5431 0)
# Probe 317 (0.64003 0.51198 0)
# Probe 318 (0.6613 0.53883 0)
# Probe 319 (0.67466 0.50648 0)
# Probe 320 (0.69674 0.53452 0)
# Probe 321 (0.71017 0.50096 0)
# Probe 322 (0.68756 0.47251 0)
# Probe 323 (0.72359 0.46637 0)
# Probe 324 (0.70051 0.43734 0)
# Probe 325 (0.73322 0.52911 0)
# Probe 326 (0.71876 0.56453 0)
# Probe 327 (0.73774 0.43087 0)
# Probe 328 (0.71339 0.40044 0)
# Probe 329 (0.75238 0.39476 0)
# Probe 330 (0.72713 0.36384 0)
# Probe 331 (0.68791 0.36946 0)
# Probe 332 (0.70164 0.33296 0)
# Probe 333 (0.66285 0.33879 0)
# Probe 334 (0.67674 0.30207 0)
# Probe 335 (0.71797 0.29728 0)
# Probe 336 (0.63779 0.30804 0)
# Probe 337 (0.6517 0.27154 0)
# Probe 338 (0.6127 0.27754 0)
# Probe 339 (0.75707 0.55898 0)
# Probe 340 (0.74046 0.59698 0)
# Probe 341 (0.62652 0.24131 0)
# Probe 342 (0.58782 0.24809 0)
# Probe 343 (0.77704 0.42212 0)
# Probe 344 (0.76421 0.35414 0)
# Probe 345 (0.78098 0.59112 0)
# Probe 346 (0.76533 0.62818 0)
# Probe 347 (0.72333 0.63465 0)
# Probe 348 (0.74895 0.66588 0)
# Probe 349 (0.78992 0.66122 0)
# Probe 350 (0.77351 0.69921 0)
# Probe 351 (0.73208 0.70357 0)
# Probe 352 (0.75649 0.73772 0)
# Probe 353 (0.71426 0.74209 0)
# Probe 354 (0.79657 0.55306 0)
# Probe 355 (0.66618 0.23427 0)
# Probe 356 (0.73913 0.77663 0)
# Probe 357 (0.69639 0.78102 0)
# Probe 358 (0.64002 0.20236 0)
# Probe 359 (0.56938 0.47219 0)
# Probe 360 (0.78264 0.77173 0)
# Probe 361 (0.29757 0.72591 0)
# Probe 362 (0.50101 0.38382 0)
# Probe 363 (0.68212 0.19539 0)
# Probe 364 (0.21486 0.38074 0)
# Probe 365 (0.51436 0.81412 0)
# Probe 366 (0.55117 0.81057 0)
# Probe 367 (0.24788 0.73282 0)
# Probe 368 (0.15949 0.75919 0)
# Probe 369 (0.16984 0.73396 0)
# Probe 370 (0.14467 0.73584 0)
# Probe 371 (0.52147 0.58588 0)
# Probe 372 (0.57445 0.28369 0)
# Probe 373 (0.55035 0.25479 0)
# Probe 374 (0.56269 0.21899 0)
# Probe 375 (0.52579 0.22629 0)
# Probe 376 (0.5377 0.19 0)
# Probe 377 (0.50012 0.19738 0)
# Probe 378 (0.51298 0.15855 0)
# Probe 379 (0.4728 0.16598 0)
# Probe 380 (0.46182 0.20435 0)
# Probe 381 (0.43455 0.17416 0)
# Probe 382 (0.81593 0.69518 0)
# Probe 383 (0.61883 0.34647 0)
# Probe 384 (0.14569 0.78675 0)
# Probe 385 (0.1659 0.81394 0)
# Probe 386 (0.53669 0.84584 0)
# Probe 387 (0.5757 0.84164 0)
# Probe 388 (0.69035 0.70834 0)
# Probe 389 (0.65405 0.16192 0)
# Probe 390 (0.72157 0.81596 0)
# Probe 391 (0.42411 0.21151 0)
# Probe 392 (0.39902 0.18367 0)
# Probe 393 (0.8217 0.58601 0)
# Probe 394 (0.15512 0.70926 0)
# Probe 395 (0.65768 0.44418 0)
# Probe 396 (0.47509 0.81973 0)
# Probe 397 (0.17904 0.71104 0)
# Probe 398 (0.12951 0.71346 0)
# Probe 399 (0.83734 0.54761 0)
# Probe 400 (0.54994 0.14832 0)
# Probe 401 (0.5661 0.77441 0)
# Probe 402 (0.44918 0.23918 0)
# Probe 403 (0.38682 0.21939 0)
# Probe 404 (0.36191 0.19228 0)
# Probe 405 (0.37424 0.15605 0)
# Probe 406 (0.33783 0.16419 0)
# Probe 407 (0.32653 0.20022 0)
# Probe 408 (0.30191 0.17291 0)
# Probe 409 (0.29044 0.20816 0)
# Probe 410 (0.26643 0.18116 0)
# Probe 411 (0.25549 0.21577 0)
# Probe 412 (0.23126 0.18931 0)
# Probe 413 (0.22009 0.22407 0)
# Probe 414 (0.19532 0.1971 0)
# Probe 415 (0.18456 0.23231 0)
# Probe 416 (0.24276 0.15377 0)
# Probe 417 (0.34873 0.12698 0)
# Probe 418 (0.15903 0.2051 0)
# Probe 419 (0.16982 0.16762 0)
# Probe 420 (0.15116 0.24136 0)
# Probe 421 (0.69733 0.15435 0)
# Probe 422 (0.72509 0.18871 0)
# Probe 423 (0.74145 0.14672 0)
# Probe 424 (0.77034 0.18244 0)
# Probe 425 (0.13797 0.68989 0)
# Probe 426 (0.53824 0.28965 0)
# Probe 427 (0.48664 0.12982 0)
# Probe 428 (0.13115 0.81697 0)
# Probe 429 (0.15235 0.84561 0)
# Probe 430 (0.18936 0.84123 0)
# Probe 431 (0.67838 0.82004 0)
# Probe 432 (0.70549 0.85469 0)
# Probe 433 (0.74828 0.85139 0)
# Probe 434 (0.56064 0.8786 0)
# Probe 435 (0.14701 0.43809 0)
# Probe 436 (0.56095 0.31715 0)
# Probe 437 (0.60197 0.87321 0)
# Probe 438 (0.66887 0.12011 0)
# Probe 439 (0.27817 0.24182 0)
# Probe 440 (0.86369 0.58094 0)
# Probe 441 (0.81135 0.51469 0)
# Probe 442 (0.85321 0.50839 0)
# Probe 443 (0.11431 0.69263 0)
# Probe 444 (0.12487 0.67047 0)
# Probe 445 (0.10097 0.71811 0)
# Probe 446 (0.78682 0.13909 0)
# Probe 447 (0.81598 0.17525 0)
# Probe 448 (0.79927 0.21872 0)
# Probe 449 (0.84511 0.21169 0)
# Probe 450 (0.82825 0.25509 0)
# Probe 451 (0.65595 0.78383 0)
# Probe 452 (0.83462 0.12551 0)
# Probe 453 (0.21008 0.25758 0)
# Probe 454 (0.52026 0.88306 0)
# Probe 455 (0.17294 0.87685 0)
# Probe 456 (0.21234 0.86914 0)
# Probe 457 (0.1314 0.8798 0)
# Probe 458 (0.38765 0.1191 0)
# Probe 459 (0.6191 0.48714 0)
# Probe 460 (0.52675 0.32291 0)
# Probe 461 (0.50484 0.30158 0)
# Probe 462 (0.54792 0.34937 0)
# Probe 463 (0.13094 0.17617 0)
# Probe 464 (0.14255 0.13434 0)
# Probe 465 (0.36194 0.08822 0)
# Probe 466 (0.64745 0.56758 0)
# Probe 467 (0.84736 0.61971 0)
# Probe 468 (0.87368 0.24848 0)
# Probe 469 (0.85715 0.29163 0)
# Probe 470 (0.90269 0.28502 0)
# Probe 471 (0.88564 0.32781 0)
# Probe 472 (0.62571 0.12735 0)
# Probe 473 (0.10181 0.51212 0)
# Probe 474 (0.64255 0.08419 0)
# Probe 475 (0.1001 0.67144 0)
# Probe 476 (0.11179 0.64732 0)
# Probe 477 (0.08588 0.6504 0)
# Probe 478 (0.09491 0.62731 0)
# Probe 479 (0.06957 0.62956 0)
# Probe 480 (0.54413 0.91837 0)
# Probe 481 (0.18449 0.12665 0)
# Probe 482 (0.11064 0.7854 0)
# Probe 483 (0.84138 0.33361 0)
# Probe 484 (0.86857 0.37036 0)
# Probe 485 (0.82802 0.47545 0)
# Probe 486 (0.86966 0.46857 0)
# Probe 487 (0.7298 0.8913 0)
# Probe 488 (0.67923 0.89214 0)
# Probe 489 (0.0939 0.82086 0)
# Probe 490 (0.78382 0.26123 0)
# Probe 491 (0.77524 0.88584 0)
# Probe 492 (0.79418 0.84584 0)
# Probe 493 (0.82183 0.88164 0)
# Probe 494 (0.84068 0.84012 0)
# Probe 495 (0.86884 0.8769 0)
# Probe 496 (0.8875 0.8338 0)
# Probe 497 (0.86001 0.79615 0)
# Probe 498 (0.08236 0.60479 0)
# Probe 499 (0.14907 0.66858 0)
# Probe 500 (0.32128 0.09885 0)
# Probe 501 (0.1418 0.45821 0)
# Probe 502 (0.84291 0.43811 0)
# Probe 503 (0.16942 0.69156 0)
# Probe 504 (0.18777 0.69231 0)
# Probe 505 (0.19855 0.70836 0)
# Probe 506 (0.20514 0.68933 0)
# Probe 507 (0.21611 0.70466 0)
# Probe 508 (0.22267 0.68995 0)
# Probe 509 (0.23272 0.70228 0)
# Probe 510 (0.23865 0.68838 0)
# Probe 511 (0.24802 0.70003 0)
# Probe 512 (0.25297 0.68656 0)
# Probe 513 (0.26302 0.69798 0)
# Probe 514 (0.26743 0.68266 0)
# Probe 515 (0.27796 0.69579 0)
# Probe 516 (0.28385 0.68141 0)
# Probe 517 (0.29346 0.69385 0)
# Probe 518 (0.29852 0.68023 0)
# Probe 519 (0.30909 0.69187 0)
# Probe 520 (0.3133 0.67576 0)
# Probe 521 (0.32536 0.68995 0)
# Probe 522 (0.33113 0.67436 0)
# Probe 523 (0.32146 0.66159 0)
# Probe 524 (0.33739 0.65858 0)
# Probe 525 (0.34795 0.67183 0)
# Probe 526 (0.35382 0.65513 0)
# Probe 527 (0.36534 0.66878 0)
# Probe 528 (0.37069 0.65192 0)
# Probe 529 (0.35934 0.63846 0)
# Probe 530 (0.37586 0.63471 0)
# Probe 531 (0.38792 0.64805 0)
# Probe 532 (0.39309 0.63064 0)
# Probe 533 (0.38058 0.61775 0)
# Probe 534 (0.39732 0.61325 0)
# Probe 535 (0.38513 0.60179 0)
# Probe 536 (0.4016 0.59623 0)
# Probe 537 (0.3888 0.58386 0)
# Probe 538 (0.40614 0.57919 0)
# Probe 539 (0.39421 0.566 0)
# Probe 540 (0.41087 0.56184 0)
# Probe 541 (0.39813 0.54944 0)
# Probe 542 (0.41547 0.54444 0)
# Probe 543 (0.40221 0.53168 0)
# Probe 544 (0.41955 0.59117 0)
# Probe 545 (0.40676 0.64399 0)
# Probe 546 (0.42639 0.55653 0)
# Probe 547 (0.42028 0.52654 0)
# Probe 548 (0.40663 0.51375 0)
# Probe 549 (0.3894 0.51898 0)
# Probe 550 (0.39335 0.50158 0)
# Probe 551 (0.3769 0.5065 0)
# Probe 552 (0.38061 0.48969 0)
# Probe 553 (0.39702 0.48438 0)
# Probe 554 (0.38392 0.4726 0)
# Probe 555 (0.36751 0.47827 0)
# Probe 556 (0.37083 0.46142 0)
# Probe 557 (0.35502 0.46699 0)
# Probe 558 (0.35805 0.45035 0)
# Probe 559 (0.34237 0.45588 0)
# Probe 560 (0.34537 0.43928 0)
# Probe 561 (0.36178 0.43393 0)
# Probe 562 (0.32967 0.4448 0)
# Probe 563 (0.33256 0.42821 0)
# Probe 564 (0.31681 0.43372 0)
# Probe 565 (0.38401 0.55443 0)
# Probe 566 (0.38733 0.45518 0)
# Probe 567 (0.36878 0.60642 0)
# Probe 568 (0.42516 0.50794 0)
# Probe 569 (0.43969 0.52192 0)
# Probe 570 (0.31975 0.41678 0)
# Probe 571 (0.30394 0.42284 0)
# Probe 572 (0.3365 0.41074 0)
# Probe 573 (0.35203 0.48214 0)
# Probe 574 (0.32706 0.46059 0)
# Probe 575 (0.30121 0.43871 0)
# Probe 576 (0.28969 0.42854 0)
# Probe 577 (0.2909 0.41267 0)
# Probe 578 (0.27591 0.42105 0)
# Probe 579 (0.37318 0.52292 0)
# Probe 580 (0.36204 0.51148 0)
# Probe 581 (0.35822 0.52596 0)
# Probe 582 (0.40131 0.66378 0)
# Probe 583 (0.42136 0.66047 0)
# Probe 584 (0.42716 0.63848 0)
# Probe 585 (0.44347 0.65367 0)
# Probe 586 (0.44972 0.62956 0)
# Probe 587 (0.44519 0.50182 0)
# Probe 588 (0.43636 0.67587 0)
# Probe 589 (0.42893 0.48956 0)
# Probe 590 (0.32726 0.64781 0)
# Probe 591 (0.28784 0.44347 0)
# Probe 592 (0.27808 0.40239 0)
# Probe 593 (0.26251 0.40881 0)
# Probe 594 (0.26023 0.425 0)
# Probe 595 (0.2466 0.41517 0)
# Probe 596 (0.32262 0.39778 0)
# Probe 597 (0.34051 0.39204 0)
# Probe 598 (0.32018 0.70602 0)
# Probe 599 (0.3598 0.68588 0)
# Probe 600 (0.29263 0.39766 0)
# Probe 601 (0.24882 0.39887 0)
# Probe 602 (0.2336 0.40611 0)
# Probe 603 (0.23131 0.42193 0)
# Probe 604 (0.21833 0.41184 0)
# Probe 605 (0.21707 0.42856 0)
# Probe 606 (0.20361 0.41817 0)
# Probe 607 (0.20227 0.43552 0)
# Probe 608 (0.18932 0.4258 0)
# Probe 609 (0.27286 0.7112 0)
# Probe 610 (0.4605 0.51706 0)
# Probe 611 (0.4549 0.5383 0)
# Probe 612 (0.47601 0.53353 0)
# Probe 613 (0.47014 0.55574 0)
# Probe 614 (0.3553 0.40542 0)
# Probe 615 (0.35944 0.38352 0)
# Probe 616 (0.37561 0.39946 0)
# Probe 617 (0.49212 0.54814 0)
# Probe 618 (0.37762 0.68301 0)
# Probe 619 (0.45846 0.67287 0)
# Probe 620 (0.34948 0.51526 0)
# Probe 621 (0.29785 0.45206 0)
# Probe 622 (0.37111 0.69814 0)
# Probe 623 (0.19019 0.41061 0)
# Probe 624 (0.89005 0.20367 0)
# Probe 625 (0.46546 0.49518 0)
# Probe 626 (0.78705 0.48489 0)
# Probe 627 (0.21092 0.72239 0)
# Probe 628 (0.88339 0.4307 0)
# Probe 629 (0.91147 0.46676 0)
# Probe 630 (0.13647 0.65112 0)
# Probe 631 (0.31338 0.65048 0)
# Probe 632 (0.36809 0.53642 0)
# Probe 633 (0.35354 0.5401 0)
# Probe 634 (0.17415 0.41596 0)
# Probe 635 (0.82785 0.37388 0)
# Probe 636 (0.34326 0.37276 0)
# Probe 637 (0.28622 0.45609 0)
# Probe 638 (0.61103 0.83244 0)
# Probe 639 (0.09362 0.38572 0)
# Probe 640 (0.09978 0.35719 0)
# Probe 641 (0.10338 0.14098 0)
# Probe 642 (0.11537 0.10636 0)
# Probe 643 (0.88909 0.61469 0)
# Probe 644 (0.87541 0.65686 0)
# Probe 645 (0.90669 0.57478 0)
# Probe 646 (0.16069 0.45148 0)
# Probe 647 (0.12564 0.6335 0)
# Probe 648 (0.17876 0.67799 0)
# Probe 649 (0.1242 0.47073 0)
# Probe 650 (0.75796 0.10293 0)
# Probe 651 (0.35259 0.50382 0)
# Probe 652 (0.19563 0.90732 0)
# Probe 653 (0.2356 0.89708 0)
# Probe 654 (0.24994 0.86219 0)
# Probe 655 (0.27385 0.89079 0)
# Probe 656 (0.28612 0.85591 0)
# Probe 657 (0.31036 0.88388 0)
# Probe 658 (0.32242 0.84989 0)
# Probe 659 (0.34647 0.87725 0)
# Probe 660 (0.35863 0.8432 0)
# Probe 661 (0.38341 0.87004 0)
# Probe 662 (0.37081 0.90453 0)
# Probe 663 (0.40871 0.89876 0)
# Probe 664 (0.42079 0.86181 0)
# Probe 665 (0.4455 0.89083 0)
# Probe 666 (0.25604 0.92554 0)
# Probe 667 (0.48557 0.57356 0)
# Probe 668 (0.46313 0.57963 0)
# Probe 669 (0.48198 0.60057 0)
# Probe 670 (0.12107 0.49326 0)
# Probe 671 (0.70987 0.93146 0)
# Probe 672 (0.39298 0.93242 0)
# Probe 673 (0.28948 0.66987 0)
# Probe 674 (0.30775 0.66116 0)
# Probe 675 (0.36302 0.54951 0)
# Probe 676 (0.35101 0.55335 0)
# Probe 677 (0.35967 0.56229 0)
# Probe 678 (0.31275 0.45067 0)
# Probe 679 (0.31354 0.46563 0)
# Probe 680 (0.32384 0.47386 0)
# Probe 681 (0.31251 0.47725 0)
# Probe 682 (0.34729 0.56528 0)
# Probe 683 (0.35624 0.57412 0)
# Probe 684 (0.36855 0.57152 0)
# Probe 685 (0.36421 0.58428 0)
# Probe 686 (0.35218 0.58659 0)
# Probe 687 (0.0392 0.72297 0)
# Probe 688 (0.93021 0.32521 0)
# Probe 689 (0.03719 0.41446 0)
# Probe 690 (0.43173 0.6175 0)
# Probe 691 (0.10327 0.60768 0)
# Probe 692 (0.09928 0.58709 0)
# Probe 693 (0.33464 0.05708 0)
# Probe 694 (0.33831 0.47249 0)
# Probe 695 (0.33812 0.48688 0)
# Probe 696 (0.18801 0.43974 0)
# Probe 697 (0.23798 0.37252 0)
# Probe 698 (0.04352 0.33039 0)
# Probe 699 (0.07843 0.30264 0)
# Probe 700 (0.08266 0.26197 0)
# Probe 701 (0.11449 0.28649 0)
# Probe 702 (0.04676 0.23536 0)
# Probe 703 (0.08809 0.22473 0)
# Probe 704 (0.14312 0.47518 0)
# Probe 705 (0.24287 0.67696 0)
# Probe 706 (0.18871 0.38274 0)
# Probe 707 (0.50811 0.613 0)
# Probe 708 (0.43086 0.70652 0)
# Probe 709 (0.59501 0.09402 0)
# Probe 710 (0.23008 0.43779 0)
# Probe 711 (0.24446 0.4304 0)
# Probe 712 (0.25497 0.44126 0)
# Probe 713 (0.26851 0.4365 0)
# Probe 714 (0.5813 0.34477 0)
# Probe 715 (0.56678 0.37526 0)
# Probe 716 (0.53343 0.37909 0)
# Probe 717 (0.34498 0.52897 0)
# Probe 718 (0.28673 0.36528 0)
# Probe 719 (0.26272 0.82846 0)
# Probe 720 (0.22601 0.83016 0)
# Probe 721 (0.29799 0.81944 0)
# Probe 722 (0.36434 0.622 0)
# Probe 723 (0.34888 0.62618 0)
# Probe 724 (0.3534 0.61144 0)
# Probe 725 (0.34159 0.64198 0)
# Probe 726 (0.33584 0.62907 0)
# Probe 727 (0.34006 0.61646 0)
# Probe 728 (0.34271 0.60392 0)
# Probe 729 (0.19322 0.67716 0)
# Probe 730 (0.2457 0.25453 0)
# Probe 731 (0.22984 0.28507 0)
# Probe 732 (0.27331 0.26888 0)
# Probe 733 (0.30034 0.26419 0)
# Probe 734 (0.31227 0.23499 0)
# Probe 735 (0.34849 0.22763 0)
# Probe 736 (0.37497 0.2558 0)
# Probe 737 (0.41256 0.246 0)
# Probe 738 (0.43624 0.27046 0)
# Probe 739 (0.47142 0.26523 0)
# Probe 740 (0.45557 0.29297 0)
# Probe 741 (0.40491 0.27601 0)
# Probe 742 (0.53308 0.55712 0)
# Probe 743 (0.38419 0.53707 0)
# Probe 744 (0.45316 0.60481 0)
# Probe 745 (0.21564 0.678 0)
# Probe 746 (0.0751 0.73889 0)
# Probe 747 (0.04515 0.82367 0)
# Probe 748 (0.33945 0.55533 0)
# Probe 749 (0.33233 0.52405 0)
# Probe 750 (0.33556 0.58512 0)
# Probe 751 (0.45141 0.43758 0)
# Probe 752 (0.42686 0.44024 0)
# Probe 753 (0.41206 0.42143 0)
# Probe 754 (0.44032 0.45862 0)
# Probe 755 (0.41931 0.46008 0)
# Probe 756 (0.42041 0.39692 0)
# Probe 757 (0.40427 0.37528 0)
# Probe 758 (0.31794 0.63793 0)
# Probe 759 (0.92709 0.4186 0)
# Probe 760 (0.32255 0.61748 0)
# Probe 761 (0.25692 0.45432 0)
# Probe 762 (0.30475 0.64113 0)
# Probe 763 (0.2855 0.65255 0)
# Probe 764 (0.23209 0.96101 0)
# Probe 765 (0.32296 0.50428 0)
# Probe 766 (0.33295 0.50503 0)
# Probe 767 (0.64079 0.86387 0)
# Probe 768 (0.36265 0.49494 0)
# Probe 769 (0.28938 0.29428 0)
# Probe 770 (0.21421 0.45241 0)
# Probe 771 (0.26651 0.66204 0)
# Probe 772 (0.27597 0.66968 0)
# Probe 773 (0.20174 0.29273 0)
# Probe 774 (0.17822 0.26584 0)
# Probe 775 (0.38007 0.04494 0)
# Probe 776 (0.2357 0.45097 0)
# Probe 777 (0.953 0.57369 0)
# Probe 778 (0.6483 0.37485 0)
# Probe 779 (0.61205 0.38482 0)
# Probe 780 (0.63491 0.4082 0)
# Probe 781 (0.60067 0.41786 0)
# Probe 782 (0.61869 0.4416 0)
# Probe 783 (0.67346 0.40613 0)
# Probe 784 (0.95422 0.279 0)
# Probe 785 (0.47228 0.69687 0)
# Probe 786 (0.12691 0.9578 0)
# Probe 787 (0.10782 0.91336 0)
# Probe 788 (0.22532 0.04129 0)
# Probe 789 (0.2506 0.08441 0)
# Probe 790 (0.20351 0.08296 0)
# Probe 791 (0.67215 0.74654 0)
# Probe 792 (0.64959 0.71275 0)
# Probe 793 (0.66665 0.6763 0)
# Probe 794 (0.6287 0.68066 0)
# Probe 795 (0.64358 0.64733 0)
# Probe 796 (0.61254 0.71562 0)
# Probe 797 (0.60818 0.65466 0)
# Probe 798 (0.68263 0.64101 0)
# Probe 799 (0.65698 0.61743 0)
# Probe 800 (0.15696 0.64062 0)
# Probe 801 (0.15308 0.65183 0)
# Probe 802 (0.16353 0.65969 0)
# Probe 803 (0.62981 0.90636 0)
# Probe 804 (0.50873 0.26576 0)
# Probe 805 (0.48715 0.23356 0)
# Probe 806 (0.68931 0.0782 0)
# Probe 807 (0.26904 0.73159 0)
# Probe 808 (0.63273 0.74898 0)
# Probe 809 (0.61326 0.78749 0)
# Probe 810 (0.69603 0.60121 0)
# Probe 811 (0.81312 0.29702 0)
# Probe 812 (0.76661 0.30469 0)
# Probe 813 (0.19298 0.6629 0)
# Probe 814 (0.15232 0.4168 0)
# Probe 815 (0.90702 0.79018 0)
# Probe 816 (0.87688 0.74558 0)
# Probe 817 (0.82817 0.7621 0)
# Probe 818 (0.75517 0.2243 0)
# Probe 819 (0.11117 0.32234 0)
# Probe 820 (0.14128 0.30592 0)
# Probe 821 (0.46902 0.62072 0)
# Probe 822 (0.18366 0.46203 0)
# Probe 823 (0.165 0.47256 0)
# Probe 824 (0.20367 0.45487 0)
# Probe 825 (0.56988 0.95676 0)
# Probe 826 (0.27551 0.44852 0)
# Probe 827 (0.47474 0.04186 0)
# Probe 828 (0.44902 0.08394 0)
# Probe 829 (0.49645 0.08364 0)
# Probe 830 (0.43971 0.12916 0)
# Probe 831 (0.52783 0.11502 0)
# Probe 832 (0.52569 0.04204 0)
# Probe 833 (0.45894 0.85553 0)
# Probe 834 (0.43357 0.82281 0)
# Probe 835 (0.39581 0.83568 0)
# Probe 836 (0.45576 0.78823 0)
# Probe 837 (0.51433 0.35478 0)
# Probe 838 (0.17405 0.65339 0)
# Probe 839 (0.14295 0.62456 0)
# Probe 840 (0.51565 0.53241 0)
# Probe 841 (0.47106 0.64426 0)
# Probe 842 (0.33418 0.2598 0)
# Probe 843 (0.95813 0.67474 0)
# Probe 844 (0.95851 0.72551 0)
# Probe 845 (0.91189 0.70021 0)
# Probe 846 (0.70733 0.67162 0)
# Probe 847 (0.33588 0.81787 0)
# Probe 848 (0.37196 0.80995 0)
# Probe 849 (0.04281 0.12585 0)
# Probe 850 (0.40333 0.44472 0)
# Probe 851 (0.39356 0.42562 0)
# Probe 852 (0.14796 0.48719 0)
# Probe 853 (0.13487 0.50169 0)
# Probe 854 (0.93332 0.82787 0)
# Probe 855 (0.12701 0.04003 0)
# Probe 856 (0.55241 0.40414 0)
# Probe 857 (0.52245 0.95874 0)
# Probe 858 (0.71019 0.22872 0)
# Probe 859 (0.19686 0.8075 0)
# Probe 860 (0.59788 0.31273 0)
# Probe 861 (0.23537 0.66811 0)
# Probe 862 (0.44086 0.58566 0)
# Probe 863 (0.76875 0.05157 0)
# Probe 864 (0.82582 0.95972 0)
# Probe 865 (0.22674 0.73403 0)
# Probe 866 (0.12417 0.58701 0)
# Probe 867 (0.95966 0.17495 0)
# Probe 868 (0.91266 0.15764 0)
# Probe 869 (0.9136 0.10034 0)
# Probe 870 (0.87343 0.04869 0)
# Probe 871 (0.86576 0.09526 0)
# Probe 872 (0.1312 0.60705 0)
# Probe 873 (0.12564 0.61823 0)
# Probe 874 (0.92478 0.95786 0)
# Probe 875 (0.27075 0.79991 0)
# Probe 876 (0.49435 0.33344 0)
# Probe 877 (0.58618 0.44599 0)
# Probe 878 (0.15006 0.086 0)
# Probe 879 (0.16489 0.43321 0)
# Probe 880 (0.33318 0.59622 0)
# Probe 881 (0.61348 0.16973 0)
# Probe 882 (0.12658 0.52229 0)
# Probe 883 (0.11353 0.52393 0)
# Probe 884 (0.11203 0.53858 0)
# Probe 885 (0.22984 0.67831 0)
# Probe 886 (0.62234 0.04176 0)
# Probe 887 (0.95746 0.47157 0)
# Probe 888 (0.0509 0.60348 0)
# Probe 889 (0.59361 0.74724 0)
# Probe 890 (0.5579 0.73835 0)
# Probe 891 (0.60094 0.2106 0)
# Probe 892 (0.77179 0.52264 0)
# Probe 893 (0.65268 0.48029 0)
# Probe 894 (0.91994 0.64644 0)
# Probe 895 (0.86423 0.70242 0)
# Probe 896 (0.39796 0.4033 0)
# Probe 897 (0.33543 0.53456 0)
# Probe 898 (0.49806 0.85053 0)
# Probe 899 (0.31201 0.13617 0)
# Probe 900 (0.12279 0.5441 0)
# Probe 901 (0.10977 0.5558 0)
# Probe 902 (0.12073 0.5652 0)
# Probe 903 (0.10991 0.57255 0)
# Probe 904 (0.32821 0.49399 0)
# Probe 905 (0.2425 0.71504 0)
# Probe 906 (0.86205 0.16839 0)
# Probe 907 (0.41116 0.62591 0)
# Probe 908 (0.89815 0.91754 0)
# Probe 909 (0.89383 0.5036 0)
# Probe 910 (0.87885 0.54183 0)
# Probe 911 (0.80058 0.08994 0)
# Probe 912 (0.15266 0.91459 0)
# Probe 913 (0.0924 0.87262 0)
# Probe 914 (0.71394 0.1137 0)
# Probe 915 (0.09103 0.56636 0)
# Probe 916 (0.07127 0.58193 0)
# Probe 917 (0.91309 0.36398 0)
# Probe 918 (0.68249 0.56642 0)
# Probe 919 (0.26347 0.39144 0)
# Probe 920 (0.7668 0.81078 0)
# Probe 921 (0.80591 0.62387 0)
# Probe 922 (0.81208 0.80445 0)
# Probe 923 (0.31699 0.7264 0)
# Probe 924 (0.07072 0.70355 0)
# Probe 925 (0.1047 0.75099 0)
# Probe 926 (0.43514 0.92897 0)
# Probe 927 (0.38076 0.37819 0)
# Probe 928 (0.66274 0.94119 0)
# Probe 929 (0.03987 0.92266 0)
# Probe 930 (0.61404 0.57214 0)
# Probe 931 (0.50121 0.91978 0)
# Probe 932 (0.07688 0.03677 0)
# Probe 933 (0.40351 0.08153 0)
# Probe 934 (0.28457 0.11135 0)
# Probe 935 (0.58733 0.91428 0)
# Probe 936 (0.19112 0.72939 0)
# Probe 937 (0.41351 0.68717 0)
# Probe 938 (0.69419 0.26638 0)
# Probe 939 (0.22322 0.30793 0)
# Probe 940 (0.29491 0.65902 0)
# Probe 941 (0.57502 0.17833 0)
# Probe 942 (0.35911 0.35762 0)
# Probe 943 (0.41078 0.49603 0)
# Probe 944 (0.55303 0.45093 0)
# Probe 945 (0.28571 0.46718 0)
# Probe 946 (0.44914 0.47916 0)
# Probe 947 (0.32527 0.37767 0)
# Probe 948 (0.58751 0.49461 0)
# Probe 949 (0.9558 0.9209 0)
# Probe 950 (0.51918 0.40623 0)
# Probe 951 (0.95863 0.07705 0)
# Probe 952 (0.03748 0.63509 0)
# Probe 953 (0.48357 0.36133 0)
# Probe 954 (0.48594 0.66976 0)
# Probe 955 (0.79889 0.73149 0)
# Probe 956 (0.29764 0.92153 0)
# Probe 957 (0.33718 0.70391 0)
# Probe 958 (0.17432 0.45638 0)
# Probe 959 (0.57503 0.65991 0)
# Probe 960 (0.09965 0.52866 0)
# Probe 961 (0.11668 0.50891 0)
# Probe 962 (0.44448 0.56143 0)
# Probe 963 (0.21685 0.44168 0)
# Probe 964 (0.55476 0.0806 0)
# Probe 965 (0.27708 0.14698 0)
# Probe 966 (0.33434 0.91137 0)
# Probe 967 (0.12768 0.35306 0)
# Probe 968 (0.26418 0.67086 0)
# Probe 969 (0.48601 0.48011 0)
# Probe 970 (0.34361 0.7908 0)