# Probe 0 (0 0 0)
# Probe 1 (1 0 0)
# Probe 2 (1 1 0)
# Probe 3 (0 1 0)
# Probe 4 (0.73 0.44 0)
# Probe 5 (0.63 0.34 0)
# Probe 6 (0.53 0.44 0)
# Probe 7 (0.63 0.54 0)
# Probe 8 (0.05 0 0)
# Probe 9 (0.1 0 0)
# Probe 10 (0.15 0 0)
# Probe 11 (0.2 0 0)
# Probe 12 (0.25 0 0)
# Probe 13 (0.3 0 0)
# Probe 14 (0.35 0 0)
# Probe 15 (0.4 0 0)
# Probe 16 (0.45 0 0)
# Probe 17 (0.5 0 0)
# Probe 18 (0.55 0 0)
# Probe 19 (0.6 0 0)
# Probe 20 (0.65 0 0)
# Probe 21 (0.7 0 0)
# Probe 22 (0.75 0 0)
# Probe 23 (0.8 0 0)
# Probe 24 (0.85 0 0)
# Probe 25 (0.9 0 0)
# Probe 26 (0.95 0 0)
# Probe 27 (1 0.05 0)
# Probe 28 (1 0.1 0)
# Probe 29 (1 0.15 0)
# Probe 30 (1 0.2 0)
# Probe 31 (1 0.25 0)
# Probe 32 (1 0.3 0)
# Probe 33 (1 0.35 0)
# Probe 34 (1 0.4 0)
# Probe 35 (1 0.45 0)
# Probe 36 (1 0.5 0)
# Probe 37 (1 0.55 0)
# Probe 38 (1 0.6 0)
# Probe 39 (1 0.65 0)
# Probe 40 (1 0.7 0)
# Probe 41 (1 0.75 0)
# Probe 42 (1 0.8 0)
# Probe 43 (1 0.85 0)
# Probe 44 (1 0.9 0)
# Probe 45 (1 0.95 0)
# Probe 46 (0.95 1 0)
# Probe 47 (0.9 1 0)
# Probe 48 (0.85 1 0)
# Probe 49 (0.8 1 0)
# Probe 50 (0.75 1 0)
# Probe 51 (0.7 1 0)
# Probe 52 (0.65 1 0)
# Probe 53 (0.6 1 0)
# Probe 54 (0.55 1 0)
# Probe 55 (0.5 1 0)
# Probe 56 (0.45 1 0)
# Probe 57 (0.4 1 0)
# Probe 58 (0.35 1 0)
# Probe 59 (0.3 1 0)
# Probe 60 (0.25 1 0)
# Probe 61 (0.2 1 0)
# Probe 62 (0.15 1 0)
# Probe 63 (0.1 1 0)
# Probe 64 (0.05 1 0)
# Probe 65 (0 0.95 0)
# Probe 66 (0 0.9 0)
# Probe 67 (0 0.85 0)
# Probe 68 (0 0.8 0)
# Probe 69 (0 0.75 0)
# Probe 70 (0 0.7 0)
# Probe 71 (0 0.65 0)
# Probe 72 (0 0.6 0)
# Probe 73 (0 0.55 0)
# Probe 74 (0 0.5 0)
# Probe 75 (0 0.45 0)
# Probe 76 (0 0.4 0)
# Probe 77 (0 0.35 0)
# Probe 78 (0 0.3 0)
# Probe 79 (0 0.25 0)
# Probe 80 (0 0.2 0)
# Probe 81 (0 0.15 0)
# Probe 82 (0 0.1 0)
# Probe 83 (0 0.05 0)
# Probe 84 (0.72952 0.4302 0)
# Probe 85 (0.72808 0.42049 0)
# Probe 86 (0.72569 0.41097 0)
# Probe 87 (0.72239 0.40173 0)
# Probe 88 (0.71819 0.39286 0)
# Probe 89 (0.71315 0.38444 0)
# Probe 90 (0.7073 0.37656 0)
# Probe 91 (0.70071 0.36929 0)
# Probe 92 (0.69344 0.3627 0)
# Probe 93 (0.68556 0.35685 0)
# Probe 94 (0.67714 0.35181 0)
# Probe 95 (0.66827 0.34761 0)
# Probe 96 (0.65903 0.34431 0)
# Probe 97 (0.64951 0.34192 0)
# Probe 98 (0.6398 0.34048 0)
# Probe 99 (0.6202 0.34048 0)
# Probe 100 (0.61049 0.34192 0)
# Probe 101 (0.60097 0.34431 0)
# Probe 102 (0.59173 0.34761 0)
# Probe 103 (0.58286 0.35181 0)
# Probe 104 (0.57444 0.35685 0)
# Probe 105 (0.56656 0.3627 0)
# Probe 106 (0.55929 0.36929 0)
# Probe 107 (0.5527 0.37656 0)
# Probe 108 (0.54685 0.38444 0)
# Probe 109 (0.54181 0.39286 0)
# Probe 110 (0.53761 0.40173 0)
# Probe 111 (0.53431 0.41097 0)
# Probe 112 (0.53192 0.42049 0)
# Probe 113 (0.53048 0.4302 0)
# Probe 114 (0.53048 0.4498 0)
# Probe 115 (0.53192 0.45951 0)
# Probe 116 (0.53431 0.46903 0)
# Probe 117 (0.53761 0.47827 0)
# Probe 118 (0.54181 0.48714 0)
# Probe 119 (0.54685 0.49556 0)
# Probe 120 (0.5527 0.50344 0)
# Probe 121 (0.55929 0.51071 0)
# Probe 122 (0.56656 0.5173 0)
# Probe 123 (0.57444 0.52315 0)
# Probe 124 (0.58286 0.52819 0)
# Probe 125 (0.59173 0.53239 0)
# Probe 126 (0.60097 0.53569 0)
# Probe 127 (0.61049 0.53808 0)
# Probe 128 (0.6202 0.53952 0)
# Probe 129 (0.6398 0.53952 0)
# Probe 130 (0.64951 0.53808 0)
# Probe 131 (0.65903 0.53569 0)
# Probe 132 (0.66827 0.53239 0)
# Probe 133 (0.67714 0.52819 0)
# Probe 134 (0.68556 0.52315 0)
# Probe 135 (0.69344 0.5173 0)
# Probe 136 (0.70071 0.51071 0)
# Probe 137 (0.7073 0.50344 0)
# Probe 138 (0.71315 0.49556 0)
# Probe 139 (0.71819 0.48714 0)
# Probe 140 (0.72239 0.47827 0)
# Probe 141 (0.72569 0.46903 0)
# Probe 142 (0.72808 0.45951 0)
# Probe 143 (0.72952 0.4498 0)
# Probe 144 (0.03982 0.68039 0)
# Probe 145 (0.37557 0.96025 0)
# Probe 146 (0.04202 0.32587 0)
# Probe 147 (0.04259 0.52539 0)
# Probe 148 (0.32352 0.04299 0)
# Probe 149 (0.52237 0.95891 0)
# Probe 150 (0.73047 0.95508 0)
# Probe 151 (0.96226 0.7254 0)
# Probe 152 (0.47794 0.04764 0)
# Probe 153 (0.77247 0.03898 0)
# Probe 154 (0.9567 0.225 0)
# Probe 155 (0.62022 0.04227 0)
# Probe 156 (0.225 0.9567 0)
# Probe 157 (0.95925 0.57423 0)
# Probe 158 (0.95722 0.3794 0)
# Probe 159 (0.73718 0.45609 0)
# Probe 160 (0.73721 0.4241 0)
# Probe 161 (0.05081 0.17875 0)
# Probe 162 (0.04503 0.82979 0)
# Probe 163 (0.95432 0.47423 0)
# Probe 164 (0.17261 0.04659 0)
# Probe 165 (0.95518 0.82471 0)
# Probe 166 (0.62609 0.95771 0)
# Probe 167 (0.82426 0.95712 0)
# Probe 168 (0.04226 0.42356 0)
# Probe 169 (0.87501 0.03918 0)
# Probe 170 (0.12642 0.95641 0)
# Probe 171 (0.95995 0.1252 0)
# Probe 172 (0.92104 0.95716 0)
# Probe 173 (0.0421 0.07711 0)
# Probe 174 (0.04372 0.92019 0)
# Probe 175 (0.95839 0.42504 0)
# Probe 176 (0.91946 0.40214 0)
# Probe 177 (0.91762 0.36199 0)
# Probe 178 (0.88666 0.38298 0)
# Probe 179 (0.88361 0.34835 0)
# Probe 180 (0.7233 0.38432 0)
# Probe 181 (0.73215 0.40347 0)
# Probe 182 (0.85679 0.36648 0)
# Probe 183 (0.85362 0.33599 0)
# Probe 184 (0.85785 0.40333 0)
# Probe 185 (0.82959 0.35198 0)
# Probe 186 (0.82708 0.32321 0)
# Probe 187 (0.8008 0.34033 0)
# Probe 188 (0.80148 0.31143 0)
# Probe 189 (0.70278 0.3597 0)
# Probe 190 (0.82414 0.29484 0)
# Probe 191 (0.79829 0.2831 0)
# Probe 192 (0.82172 0.26514 0)
# Probe 193 (0.7942 0.25383 0)
# Probe 194 (0.76793 0.27445 0)
# Probe 195 (0.67634 0.34203 0)
# Probe 196 (0.76652 0.24357 0)
# Probe 197 (0.74286 0.25978 0)
# Probe 198 (0.74028 0.2326 0)
# Probe 199 (0.71774 0.24924 0)
# Probe 200 (0.6459 0.33279 0)
# Probe 201 (0.71438 0.22197 0)
# Probe 202 (0.69208 0.23867 0)
# Probe 203 (0.68859 0.21148 0)
# Probe 204 (0.66854 0.22843 0)
# Probe 205 (0.78924 0.22369 0)
# Probe 206 (0.66276 0.20139 0)
# Probe 207 (0.64151 0.22213 0)
# Probe 208 (0.61415 0.3331 0)
# Probe 209 (0.63687 0.19091 0)
# Probe 210 (0.61364 0.20871 0)
# Probe 211 (0.61064 0.18021 0)
# Probe 212 (0.58818 0.19797 0)
# Probe 213 (0.59125 0.22492 0)
# Probe 214 (0.56749 0.21555 0)
# Probe 215 (0.5748 0.346 0)
# Probe 216 (0.59364 0.33724 0)
# Probe 217 (0.57089 0.24019 0)
# Probe 218 (0.54829 0.23169 0)
# Probe 219 (0.55192 0.25569 0)
# Probe 220 (0.52951 0.24755 0)
# Probe 221 (0.52547 0.22367 0)
# Probe 222 (0.50632 0.23763 0)
# Probe 223 (0.51163 0.26316 0)
# Probe 224 (0.48883 0.25539 0)
# Probe 225 (0.55034 0.36716 0)
# Probe 226 (0.49283 0.27856 0)
# Probe 227 (0.47133 0.27192 0)
# Probe 228 (0.4744 0.29332 0)
# Probe 229 (0.4534 0.28776 0)
# Probe 230 (0.46046 0.31192 0)
# Probe 231 (0.43426 0.30437 0)
# Probe 232 (0.44066 0.32764 0)
# Probe 233 (0.41556 0.32138 0)
# Probe 234 (0.42234 0.34409 0)
# Probe 235 (0.39886 0.33732 0)
# Probe 236 (0.40463 0.36059 0)
# Probe 237 (0.38145 0.35292 0)
# Probe 238 (0.3865 0.37766 0)
# Probe 239 (0.52175 0.43468 0)
# Probe 240 (0.37508 0.32564 0)
# Probe 241 (0.36074 0.36954 0)
# Probe 242 (0.36741 0.3954 0)
# Probe 243 (0.42699 0.28123 0)
# Probe 244 (0.34174 0.38744 0)
# Probe 245 (0.34825 0.41345 0)
# Probe 246 (0.48313 0.23096 0)
# Probe 247 (0.37755 0.42107 0)
# Probe 248 (0.3553 0.439 0)
# Probe 249 (0.38017 0.44707 0)
# Probe 250 (0.36102 0.46393 0)
# Probe 251 (0.52321 0.46727 0)
# Probe 252 (0.38499 0.47126 0)
# Probe 253 (0.36654 0.48838 0)
# Probe 254 (0.39071 0.49585 0)
# Probe 255 (0.37212 0.51312 0)
# Probe 256 (0.39652 0.52043 0)
# Probe 257 (0.37772 0.53846 0)
# Probe 258 (0.40315 0.54597 0)
# Probe 259 (0.38374 0.56434 0)
# Probe 260 (0.40937 0.57219 0)
# Probe 261 (0.38892 0.59245 0)
# Probe 262 (0.41538 0.59858 0)
# Probe 263 (0.55654 0.52109 0)
# Probe 264 (0.39544 0.61946 0)
# Probe 265 (0.42269 0.62653 0)
# Probe 266 (0.35439 0.55653 0)
# Probe 267 (0.53668 0.49621 0)
# Probe 268 (0.33475 0.45742 0)
# Probe 269 (0.40207 0.64757 0)
# Probe 270 (0.43064 0.65606 0)
# Probe 271 (0.37303 0.63941 0)
# Probe 272 (0.52744 0.40492 0)
# Probe 273 (0.3797 0.6693 0)
# Probe 274 (0.3489 0.65999 0)
# Probe 275 (0.4502 0.63569 0)
# Probe 276 (0.45865 0.66364 0)
# Probe 277 (0.47822 0.64503 0)
# Probe 278 (0.58285 0.53963 0)
# Probe 279 (0.48631 0.67097 0)
# Probe 280 (0.50523 0.65223 0)
# Probe 281 (0.51134 0.67741 0)
# Probe 282 (0.53088 0.65955 0)
# Probe 283 (0.53607 0.68838 0)
# Probe 284 (0.5563 0.66732 0)
# Probe 285 (0.56332 0.69217 0)
# Probe 286 (0.58154 0.67448 0)
# Probe 287 (0.63532 0.54825 0)
# Probe 288 (0.58911 0.70104 0)
# Probe 289 (0.6073 0.6818 0)
# Probe 290 (0.61531 0.7085 0)
# Probe 291 (0.63333 0.68739 0)
# Probe 292 (0.64069 0.71463 0)
# Probe 293 (0.65905 0.69318 0)
# Probe 294 (0.493 0.69151 0)
# Probe 295 (0.66698 0.72216 0)
# Probe 296 (0.68684 0.70099 0)
# Probe 297 (0.35661 0.69314 0)
# Probe 298 (0.32303 0.68277 0)
# Probe 299 (0.69529 0.73081 0)
# Probe 300 (0.57251 0.72157 0)
# Probe 301 (0.7166 0.70914 0)
# Probe 302 (0.7096 0.51378 0)
# Probe 303 (0.68522 0.53112 0)
# Probe 304 (0.70527 0.67632 0)
# Probe 305 (0.73678 0.68681 0)
# Probe 306 (0.72982 0.65911 0)
# Probe 307 (0.72599 0.7384 0)
# Probe 308 (0.33065 0.71718 0)
# Probe 309 (0.2959 0.70656 0)
# Probe 310 (0.2885 0.67091 0)
# Probe 311 (0.75793 0.66661 0)
# Probe 312 (0.75034 0.63929 0)
# Probe 313 (0.40301 0.45563 0)
# Probe 314 (0.53722 0.38501 0)
# Probe 315 (0.60451 0.54764 0)
# Probe 316 (0.65555 0.54636 0)
# Probe 317 (0.72322 0.49589 0)
# Probe 318 (0.42721 0.55381 0)
# Probe 319 (0.64597 0.74231 0)
# Probe 320 (0.49938 0.62624 0)
# Probe 321 (0.42811 0.36733 0)
# Probe 322 (0.62229 0.66342 0)
# Probe 323 (0.36499 0.72698 0)
# Probe 324 (0.54862 0.64218 0)
# Probe 325 (0.33861 0.75261 0)
# Probe 326 (0.375 0.76314 0)
# Probe 327 (0.7775 0.64662 0)
# Probe 328 (0.76744 0.61578 0)
# Probe 329 (0.26041 0.69525 0)
# Probe 330 (0.25267 0.65793 0)
# Probe 331 (0.78694 0.67517 0)
# Probe 332 (0.72429 0.63388 0)
# Probe 333 (0.4616 0.33477 0)
# Probe 334 (0.59416 0.25013 0)
# Probe 335 (0.68645 0.18344 0)
# Probe 336 (0.79599 0.62703 0)
# Probe 337 (0.78946 0.59731 0)
# Probe 338 (0.51531 0.28652 0)
# Probe 339 (0.80566 0.36481 0)
# Probe 340 (0.41247 0.50195 0)
# Probe 341 (0.58496 0.1708 0)
# Probe 342 (0.76455 0.58844 0)
# Probe 343 (0.78245 0.57272 0)
# Probe 344 (0.80912 0.57721 0)
# Probe 345 (0.79694 0.55131 0)
# Probe 346 (0.32168 0.40565 0)
# Probe 347 (0.31531 0.37801 0)
# Probe 348 (0.2928 0.39903 0)
# Probe 349 (0.28694 0.36771 0)
# Probe 350 (0.2628 0.39038 0)
# Probe 351 (0.25665 0.35689 0)
# Probe 352 (0.23236 0.37858 0)
# Probe 353 (0.23865 0.41573 0)
# Probe 354 (0.22508 0.34522 0)
# Probe 355 (0.25014 0.32491 0)
# Probe 356 (0.21899 0.31037 0)
# Probe 357 (0.25171 0.28924 0)
# Probe 358 (0.21273 0.27404 0)
# Probe 359 (0.24159 0.24878 0)
# Probe 360 (0.34874 0.78907 0)
# Probe 361 (0.38487 0.79793 0)
# Probe 362 (0.78038 0.32642 0)
# Probe 363 (0.22338 0.68355 0)
# Probe 364 (0.23181 0.72194 0)
# Probe 365 (0.21594 0.64509 0)
# Probe 366 (0.20322 0.23563 0)
# Probe 367 (0.23329 0.20981 0)
# Probe 368 (0.271 0.22302 0)
# Probe 369 (0.24556 0.61927 0)
# Probe 370 (0.20862 0.60669 0)
# Probe 371 (0.23724 0.5809 0)
# Probe 372 (0.2013 0.56882 0)
# Probe 373 (0.1982 0.36676 0)
# Probe 374 (0.82751 0.55643 0)
# Probe 375 (0.81787 0.53075 0)
# Probe 376 (0.837 0.58334 0)
# Probe 377 (0.67094 0.25641 0)
# Probe 378 (0.72014 0.27251 0)
# Probe 379 (0.70234 0.76219 0)
# Probe 380 (0.73402 0.77216 0)
# Probe 381 (0.7092 0.79614 0)
# Probe 382 (0.74325 0.80655 0)
# Probe 383 (0.77053 0.77939 0)
# Probe 384 (0.19581 0.1972 0)
# Probe 385 (0.7925 0.52481 0)
# Probe 386 (0.80906 0.50651 0)
# Probe 387 (0.63357 0.16116 0)
# Probe 388 (0.19296 0.71009 0)
# Probe 389 (0.20233 0.75103 0)
# Probe 390 (0.84992 0.27766 0)
# Probe 391 (0.84706 0.24526 0)
# Probe 392 (0.83473 0.51081 0)
# Probe 393 (0.17162 0.59386 0)
# Probe 394 (0.758 0.56829 0)
# Probe 395 (0.34706 0.50684 0)
# Probe 396 (0.77963 0.81737 0)
# Probe 397 (0.80774 0.78935 0)
# Probe 398 (0.73743 0.2019 0)
# Probe 399 (0.23044 0.5446 0)
# Probe 400 (0.19593 0.53276 0)
# Probe 401 (0.26358 0.18544 0)
# Probe 402 (0.30043 0.19925 0)
# Probe 403 (0.78599 0.50171 0)
# Probe 404 (0.8007 0.48431 0)
# Probe 405 (0.73261 0.47702 0)
# Probe 406 (0.16137 0.73792 0)
# Probe 407 (0.1701 0.78 0)
# Probe 408 (0.21198 0.7927 0)
# Probe 409 (0.76835 0.51735 0)
# Probe 410 (0.81771 0.82881 0)
# Probe 411 (0.16905 0.26543 0)
# Probe 412 (0.41182 0.77313 0)
# Probe 413 (0.42187 0.80695 0)
# Probe 414 (0.30709 0.2361 0)
# Probe 415 (0.33597 0.21241 0)
# Probe 416 (0.33007 0.17582 0)
# Probe 417 (0.36493 0.18938 0)
# Probe 418 (0.44811 0.7831 0)
# Probe 419 (0.45784 0.81872 0)
# Probe 420 (0.48407 0.79335 0)
# Probe 421 (0.49421 0.82802 0)
# Probe 422 (0.52014 0.80337 0)
# Probe 423 (0.53036 0.84239 0)
# Probe 424 (0.55648 0.81351 0)
# Probe 425 (0.46692 0.85704 0)
# Probe 426 (0.35965 0.15316 0)
# Probe 427 (0.39494 0.16693 0)
# Probe 428 (0.35887 0.83072 0)
# Probe 429 (0.38895 0.13001 0)
# Probe 430 (0.42499 0.14408 0)
# Probe 431 (0.7169 0.83226 0)
# Probe 432 (0.68346 0.82061 0)
# Probe 433 (0.17924 0.82297 0)
# Probe 434 (0.56603 0.84963 0)
# Probe 435 (0.22299 0.83623 0)
# Probe 436 (0.85789 0.56107 0)
# Probe 437 (0.86786 0.59258 0)
# Probe 438 (0.74242 0.58086 0)
# Probe 439 (0.73666 0.56226 0)
# Probe 440 (0.72239 0.57524 0)
# Probe 441 (0.34329 0.631 0)
# Probe 442 (0.77925 0.48119 0)
# Probe 443 (0.79273 0.46421 0)
# Probe 444 (0.81473 0.46699 0)
# Probe 445 (0.80648 0.44605 0)
# Probe 446 (0.78233 0.44513 0)
# Probe 447 (0.79719 0.42643 0)
# Probe 448 (0.30842 0.34932 0)
# Probe 449 (0.69021 0.85829 0)
# Probe 450 (0.15279 0.69622 0)
# Probe 451 (0.43828 0.68522 0)
# Probe 452 (0.90859 0.31923 0)
# Probe 453 (0.26492 0.55588 0)
# Probe 454 (0.25838 0.52118 0)
# Probe 455 (0.34127 0.24798 0)
# Probe 456 (0.84581 0.79935 0)
# Probe 457 (0.83572 0.76036 0)
# Probe 458 (0.8554 0.8391 0)
# Probe 459 (0.40272 0.20166 0)
# Probe 460 (0.78957 0.85884 0)
# Probe 461 (0.77695 0.42479 0)
# Probe 462 (0.71821 0.55719 0)
# Probe 463 (0.70486 0.56975 0)
# Probe 464 (0.73054 0.54477 0)
# Probe 465 (0.32303 0.13942 0)
# Probe 466 (0.70822 0.5879 0)
# Probe 467 (0.69108 0.58142 0)
# Probe 468 (0.69444 0.60022 0)
# Probe 469 (0.67522 0.59138 0)
# Probe 470 (0.68013 0.61259 0)
# Probe 471 (0.66218 0.60612 0)
# Probe 472 (0.65745 0.58856 0)
# Probe 473 (0.64526 0.60002 0)
# Probe 474 (0.66582 0.626 0)
# Probe 475 (0.64233 0.58344 0)
# Probe 476 (0.62969 0.59408 0)
# Probe 477 (0.62785 0.57793 0)
# Probe 478 (0.61335 0.58591 0)
# Probe 479 (0.61684 0.60451 0)
# Probe 480 (0.60119 0.59813 0)
# Probe 481 (0.59751 0.58201 0)
# Probe 482 (0.58586 0.59217 0)
# Probe 483 (0.58373 0.57636 0)
# Probe 484 (0.57107 0.58611 0)
# Probe 485 (0.5691 0.57042 0)
# Probe 486 (0.55631 0.58006 0)
# Probe 487 (0.55403 0.56415 0)
# Probe 488 (0.54154 0.5738 0)
# Probe 489 (0.53907 0.55779 0)
# Probe 490 (0.5263 0.56806 0)
# Probe 491 (0.52371 0.55091 0)
# Probe 492 (0.51046 0.56213 0)
# Probe 493 (0.50786 0.54404 0)
# Probe 494 (0.49378 0.55528 0)
# Probe 495 (0.49197 0.53744 0)
# Probe 496 (0.50548 0.52671 0)
# Probe 497 (0.49022 0.52011 0)
# Probe 498 (0.50341 0.51031 0)
# Probe 499 (0.48854 0.50328 0)
# Probe 500 (0.4749 0.51334 0)
# Probe 501 (0.47367 0.49636 0)
# Probe 502 (0.48714 0.4868 0)
# Probe 503 (0.47275 0.47982 0)
# Probe 504 (0.48603 0.47112 0)
# Probe 505 (0.47193 0.46392 0)
# Probe 506 (0.485 0.45544 0)
# Probe 507 (0.47118 0.44823 0)
# Probe 508 (0.48437 0.44003 0)
# Probe 509 (0.46999 0.43254 0)
# Probe 510 (0.4859 0.42419 0)
# Probe 511 (0.46931 0.41655 0)
# Probe 512 (0.4825 0.40757 0)
# Probe 513 (0.45502 0.42488 0)
# Probe 514 (0.45816 0.47241 0)
# Probe 515 (0.60371 0.61586 0)
# Probe 516 (0.54426 0.58744 0)
# Probe 517 (0.46777 0.40011 0)
# Probe 518 (0.482 0.39048 0)
# Probe 519 (0.49642 0.57419 0)
# Probe 520 (0.49756 0.41325 0)
# Probe 521 (0.83055 0.44849 0)
# Probe 522 (0.47814 0.56673 0)
# Probe 523 (0.31182 0.78203 0)
# Probe 524 (0.68912 0.56345 0)
# Probe 525 (0.59264 0.82349 0)
# Probe 526 (0.6018 0.85955 0)
# Probe 527 (0.31422 0.27054 0)
# Probe 528 (0.46652 0.38308 0)
# Probe 529 (0.48098 0.37383 0)
# Probe 530 (0.49597 0.38111 0)
# Probe 531 (0.4952 0.3653 0)
# Probe 532 (0.57274 0.60165 0)
# Probe 533 (0.51805 0.51684 0)
# Probe 534 (0.51044 0.76863 0)
# Probe 535 (0.1199 0.72461 0)
# Probe 536 (0.50902 0.37265 0)
# Probe 537 (0.50872 0.35718 0)
# Probe 538 (0.48093 0.58711 0)
# Probe 539 (0.87778 0.25928 0)
# Probe 540 (0.87469 0.22373 0)
# Probe 541 (0.18952 0.8672 0)
# Probe 542 (0.14513 0.85361 0)
# Probe 543 (0.53586 0.54266 0)
# Probe 544 (0.78817 0.40875 0)
# Probe 545 (0.76942 0.40614 0)
# Probe 546 (0.5828 0.78822 0)
# Probe 547 (0.87446 0.76994 0)
# Probe 548 (0.86327 0.73157 0)
# Probe 549 (0.76491 0.43862 0)
# Probe 550 (0.45873 0.50608 0)
# Probe 551 (0.71397 0.54122 0)
# Probe 552 (0.49968 0.47816 0)
# Probe 553 (0.49778 0.44789 0)
# Probe 554 (0.52335 0.36602 0)
# Probe 555 (0.52217 0.34929 0)
# Probe 556 (0.50797 0.34166 0)
# Probe 557 (0.52165 0.33373 0)
# Probe 558 (0.53525 0.34116 0)
# Probe 559 (0.53516 0.32603 0)
# Probe 560 (0.54804 0.33369 0)
# Probe 561 (0.5483 0.31861 0)
# Probe 562 (0.5073 0.32516 0)
# Probe 563 (0.56208 0.32818 0)
# Probe 564 (0.56151 0.31152 0)
# Probe 565 (0.57421 0.31911 0)
# Probe 566 (0.57474 0.30424 0)
# Probe 567 (0.58742 0.31154 0)
# Probe 568 (0.58803 0.29648 0)
# Probe 569 (0.60021 0.3039 0)
# Probe 570 (0.60147 0.28814 0)
# Probe 571 (0.61495 0.29857 0)
# Probe 572 (0.61581 0.27958 0)
# Probe 573 (0.63031 0.28866 0)
# Probe 574 (0.63254 0.2695 0)
# Probe 575 (0.63047 0.30519 0)
# Probe 576 (0.64449 0.2973 0)
# Probe 577 (0.56028 0.29408 0)
# Probe 578 (0.45999 0.52404 0)
# Probe 579 (0.41893 0.10616 0)
# Probe 580 (0.45429 0.12139 0)
# Probe 581 (0.4599 0.15789 0)
# Probe 582 (0.4885 0.13622 0)
# Probe 583 (0.4519 0.39289 0)
# Probe 584 (0.61752 0.79756 0)
# Probe 585 (0.62069 0.6224 0)
# Probe 586 (0.65347 0.57387 0)
# Probe 587 (0.57648 0.8877 0)
# Probe 588 (0.4571 0.57949 0)
# Probe 589 (0.4928 0.1709 0)
# Probe 590 (0.52052 0.15023 0)
# Probe 591 (0.51727 0.11514 0)
# Probe 592 (0.30046 0.42623 0)
# Probe 593 (0.80694 0.40911 0)
# Probe 594 (0.29153 0.53223 0)
# Probe 595 (0.2843 0.49879 0)
# Probe 596 (0.25254 0.48767 0)
# Probe 597 (0.29786 0.56576 0)
# Probe 598 (0.68727 0.63496 0)
# Probe 599 (0.66915 0.64785 0)
# Probe 600 (0.51606 0.50271 0)
# Probe 601 (0.56737 0.55369 0)
# Probe 602 (0.60754 0.6334 0)
# Probe 603 (0.77992 0.39167 0)
# Probe 604 (0.76248 0.38922 0)
# Probe 605 (0.7732 0.37484 0)
# Probe 606 (0.75554 0.3729 0)
# Probe 607 (0.50994 0.3876 0)
# Probe 608 (0.43813 0.74841 0)
# Probe 609 (0.72479 0.5297 0)
# Probe 610 (0.74114 0.53199 0)
# Probe 611 (0.7343 0.5179 0)
# Probe 612 (0.58661 0.62732 0)
# Probe 613 (0.23353 0.87937 0)
# Probe 614 (0.26652 0.84929 0)
# Probe 615 (0.27719 0.89209 0)
# Probe 616 (0.72716 0.87194 0)
# Probe 617 (0.84174 0.20923 0)
# Probe 618 (0.87081 0.18655 0)
# Probe 619 (0.83493 0.17093 0)
# Probe 620 (0.86623 0.14684 0)
# Probe 621 (0.8287 0.13196 0)
# Probe 622 (0.79785 0.15607 0)
# Probe 623 (0.79125 0.1179 0)
# Probe 624 (0.76064 0.14226 0)
# Probe 625 (0.75469 0.10473 0)
# Probe 626 (0.72413 0.12784 0)
# Probe 627 (0.71706 0.08301 0)
# Probe 628 (0.68781 0.11241 0)
# Probe 629 (0.34628 0.28174 0)
# Probe 630 (0.37155 0.26156 0)
# Probe 631 (0.59545 0.56712 0)
# Probe 632 (0.89038 0.56614 0)
# Probe 633 (0.87826 0.53694 0)
# Probe 634 (0.90113 0.5994 0)
# Probe 635 (0.87745 0.62672 0)
# Probe 636 (0.91431 0.63133 0)
# Probe 637 (0.88796 0.6641 0)
# Probe 638 (0.85054 0.65398 0)
# Probe 639 (0.76616 0.35848 0)
# Probe 640 (0.7495 0.35623 0)
# Probe 641 (0.38195 0.09169 0)
# Probe 642 (0.5854 0.27939 0)
# Probe 643 (0.46528 0.36567 0)
# Probe 644 (0.82326 0.7169 0)
# Probe 645 (0.53516 0.3104 0)
# Probe 646 (0.75794 0.42263 0)
# Probe 647 (0.91795 0.53622 0)
# Probe 648 (0.89494 0.50676 0)
# Probe 649 (0.55091 0.12842 0)
# Probe 650 (0.54705 0.09261 0)
# Probe 651 (0.58249 0.10702 0)
# Probe 652 (0.74647 0.38485 0)
# Probe 653 (0.75418 0.40814 0)
# Probe 654 (0.82287 0.09174 0)
# Probe 655 (0.69629 0.89705 0)
# Probe 656 (0.11279 0.68122 0)
# Probe 657 (0.5473 0.34676 0)
# Probe 658 (0.65617 0.88774 0)
# Probe 659 (0.84029 0.47088 0)
# Probe 660 (0.85626 0.45164 0)
# Probe 661 (0.14494 0.65526 0)
# Probe 662 (0.10329 0.63824 0)
# Probe 663 (0.50015 0.59297 0)
# Probe 664 (0.67721 0.07465 0)
# Probe 665 (0.65071 0.10088 0)
# Probe 666 (0.41117 0.06673 0)
# Probe 667 (0.64503 0.31326 0)
# Probe 668 (0.65882 0.30524 0)
# Probe 669 (0.65906 0.28979 0)
# Probe 670 (0.67293 0.29882 0)
# Probe 671 (0.67199 0.31625 0)
# Probe 672 (0.68688 0.30932 0)
# Probe 673 (0.68934 0.29012 0)
# Probe 674 (0.70266 0.30223 0)
# Probe 675 (0.70041 0.31981 0)
# Probe 676 (0.71632 0.31339 0)
# Probe 677 (0.71348 0.33029 0)
# Probe 678 (0.73015 0.32435 0)
# Probe 679 (0.73457 0.30541 0)
# Probe 680 (0.69809 0.33389 0)
# Probe 681 (0.63066 0.32022 0)
# Probe 682 (0.72654 0.34178 0)
# Probe 683 (0.7478 0.31939 0)
# Probe 684 (0.46519 0.19267 0)
# Probe 685 (0.59747 0.318 0)
# Probe 686 (0.44284 0.51679 0)
# Probe 687 (0.49293 0.33394 0)
# Probe 688 (0.9022 0.1677 0)
# Probe 689 (0.77314 0.53839 0)
# Probe 690 (0.89876 0.12497 0)
# Probe 691 (0.44401 0.49705 0)
# Probe 692 (0.74951 0.43879 0)
# Probe 693 (0.7552 0.45156 0)
# Probe 694 (0.27887 0.46591 0)
# Probe 695 (0.64965 0.63742 0)
# Probe 696 (0.32186 0.30144 0)
# Probe 697 (0.46631 0.59965 0)
# Probe 698 (0.76571 0.49589 0)
# Probe 699 (0.75972 0.47755 0)
# Probe 700 (0.74816 0.49193 0)
# Probe 701 (0.77324 0.46414 0)
# Probe 702 (0.75383 0.50641 0)
# Probe 703 (0.52429 0.18435 0)
# Probe 704 (0.61987 0.31223 0)
# Probe 705 (0.45937 0.55671 0)
# Probe 706 (0.9254 0.67031 0)
# Probe 707 (0.61193 0.76023 0)
# Probe 708 (0.73806 0.61455 0)
# Probe 709 (0.69566 0.2675 0)
# Probe 710 (0.31463 0.85494 0)
# Probe 711 (0.31943 0.90453 0)
# Probe 712 (0.28877 0.93999 0)
# Probe 713 (0.52268 0.5336 0)
# Probe 714 (0.53205 0.52172 0)
# Probe 715 (0.76065 0.33803 0)
# Probe 716 (0.1495 0.90782 0)
# Probe 717 (0.11191 0.87888 0)
# Probe 718 (0.70043 0.55121 0)
# Probe 719 (0.68459 0.54889 0)
# Probe 720 (0.67504 0.55809 0)
# Probe 721 (0.67669 0.57322 0)
# Probe 722 (0.55801 0.34197 0)
# Probe 723 (0.4986 0.3978 0)
# Probe 724 (0.50952 0.40806 0)
# Probe 725 (0.51008 0.41948 0)
# Probe 726 (0.52052 0.38079 0)
# Probe 727 (0.57801 0.0702 0)
# Probe 728 (0.91953 0.44241 0)
# Probe 729 (0.75493 0.29898 0)
# Probe 730 (0.83166 0.3805 0)
# Probe 731 (0.5036 0.494 0)
# Probe 732 (0.51221 0.48282 0)
# Probe 733 (0.24643 0.45336 0)
# Probe 734 (0.21987 0.47553 0)
# Probe 735 (0.63879 0.56703 0)
# Probe 736 (0.62488 0.5628 0)
# Probe 737 (0.6146 0.56947 0)
# Probe 738 (0.61379 0.55698 0)
# Probe 739 (0.58245 0.55999 0)
# Probe 740 (0.70848 0.34674 0)
# Probe 741 (0.72101 0.35415 0)
# Probe 742 (0.53062 0.50726 0)
# Probe 743 (0.54014 0.51426 0)
# Probe 744 (0.54464 0.52476 0)
# Probe 745 (0.29061 0.29257 0)
# Probe 746 (0.90039 0.74065 0)
# Probe 747 (0.91661 0.7832 0)
# Probe 748 (0.61561 0.23523 0)
# Probe 749 (0.43121 0.17944 0)
# Probe 750 (0.43564 0.21323 0)
# Probe 751 (0.4111 0.23192 0)
# Probe 752 (0.44078 0.24044 0)
# Probe 753 (0.68643 0.32455 0)
# Probe 754 (0.377 0.29575 0)
# Probe 755 (0.44793 0.35213 0)
# Probe 756 (0.63522 0.24913 0)
# Probe 757 (0.8715 0.48079 0)
# Probe 758 (0.50093 0.46287 0)
# Probe 759 (0.51141 0.45249 0)
# Probe 760 (0.71353 0.61175 0)
# Probe 761 (0.52473 0.635 0)
# Probe 762 (0.54282 0.61884 0)
# Probe 763 (0.5211 0.61504 0)
# Probe 764 (0.5096 0.44084 0)
# Probe 765 (0.4983 0.43461 0)
# Probe 766 (0.51176 0.47176 0)
# Probe 767 (0.53617 0.35641 0)
# Probe 768 (0.53516 0.36846 0)
# Probe 769 (0.57834 0.7534 0)
# Probe 770 (0.55128 0.5468 0)
# Probe 771 (0.56375 0.54043 0)
# Probe 772 (0.09953 0.83868 0)
# Probe 773 (0.88954 0.41958 0)
# Probe 774 (0.49268 0.31699 0)
# Probe 775 (0.32311 0.54314 0)
# Probe 776 (0.5757 0.64821 0)
# Probe 777 (0.73862 0.37068 0)
# Probe 778 (0.54414 0.05193 0)
# Probe 779 (0.65143 0.55887 0)
# Probe 780 (0.87872 0.29294 0)
# Probe 781 (0.91012 0.27822 0)
# Probe 782 (0.94396 0.29821 0)
# Probe 783 (0.54898 0.77294 0)
# Probe 784 (0.53306 0.73998 0)
# Probe 785 (0.50645 0.73389 0)
# Probe 786 (0.67428 0.54416 0)
# Probe 787 (0.64791 0.66313 0)
# Probe 788 (0.61433 0.89213 0)
# Probe 789 (0.593 0.92362 0)
# Probe 790 (0.67579 0.67289 0)
# Probe 791 (0.95805 0.52399 0)
# Probe 792 (0.53326 0.27 0)
# Probe 793 (0.66601 0.92689 0)
# Probe 794 (0.31014 0.47734 0)
# Probe 795 (0.3744 0.22783 0)
# Probe 796 (0.51938 0.41262 0)
# Probe 797 (0.7017 0.53748 0)
# Probe 798 (0.70875 0.52734 0)
# Probe 799 (0.70501 0.65086 0)
# Probe 800 (0.40737 0.4781 0)
# Probe 801 (0.42453 0.46222 0)
# Probe 802 (0.41984 0.44102 0)
# Probe 803 (0.43963 0.449 0)
# Probe 804 (0.3997 0.4335 0)
# Probe 805 (0.41769 0.42143 0)
# Probe 806 (0.21295 0.43953 0)
# Probe 807 (0.18544 0.46347 0)
# Probe 808 (0.17855 0.42679 0)
# Probe 809 (0.15002 0.45104 0)
# Probe 810 (0.14611 0.41353 0)
# Probe 811 (0.15591 0.48821 0)
# Probe 812 (0.12006 0.47367 0)
# Probe 813 (0.12265 0.51701 0)
# Probe 814 (0.3525 0.87423 0)
# Probe 815 (0.39272 0.85751 0)
# Probe 816 (0.39065 0.89489 0)
# Probe 817 (0.57376 0.33299 0)
# Probe 818 (0.58606 0.32668 0)
# Probe 819 (0.47684 0.75299 0)
# Probe 820 (0.46163 0.72294 0)
# Probe 821 (0.31456 0.50855 0)
# Probe 822 (0.5645 0.62657 0)
# Probe 823 (0.7301 0.16624 0)
# Probe 824 (0.73095 0.03971 0)
# Probe 825 (0.52799 0.47707 0)
# Probe 826 (0.52259 0.45599 0)
# Probe 827 (0.43201 0.57827 0)
# Probe 828 (0.4988 0.20445 0)
# Probe 829 (0.52097 0.44563 0)
# Probe 830 (0.37319 0.04527 0)
# Probe 831 (0.53216 0.48646 0)
# Probe 832 (0.53235 0.39423 0)
# Probe 833 (0.57355 0.53345 0)
# Probe 834 (0.59306 0.54264 0)
# Probe 835 (0.56469 0.52758 0)
# Probe 836 (0.40174 0.73852 0)
# Probe 837 (0.82261 0.0449 0)
# Probe 838 (0.79788 0.74992 0)
# Probe 839 (0.78486 0.71261 0)
# Probe 840 (0.64538 0.54806 0)
# Probe 841 (0.62404 0.54999 0)
# Probe 842 (0.55755 0.35992 0)
# Probe 843 (0.39959 0.2735 0)
# Probe 844 (0.56523 0.35121 0)
# Probe 845 (0.58381 0.34039 0)
# Probe 846 (0.76706 0.18081 0)
# Probe 847 (0.42236 0.52624 0)
# Probe 848 (0.73177 0.91191 0)
# Probe 849 (0.71763 0.37572 0)
# Probe 850 (0.72803 0.39365 0)
# Probe 851 (0.62468 0.33175 0)
# Probe 852 (0.73525 0.41374 0)
# Probe 853 (0.32915 0.57543 0)
# Probe 854 (0.30514 0.59827 0)
# Probe 855 (0.07963 0.70652 0)
# Probe 856 (0.08202 0.75087 0)
# Probe 857 (0.71731 0.5052 0)
# Probe 858 (0.68556 0.34734 0)
# Probe 859 (0.66666 0.33779 0)
# Probe 860 (0.63542 0.33144 0)
# Probe 861 (0.69494 0.35289 0)
# Probe 862 (0.7106 0.36763 0)
# Probe 863 (0.61581 0.25925 0)
# Probe 864 (0.73513 0.46633 0)
# Probe 865 (0.74609 0.46182 0)
# Probe 866 (0.73835 0.44525 0)
# Probe 867 (0.9647 0.17498 0)
# Probe 868 (0.04257 0.47458 0)
# Probe 869 (0.04186 0.37471 0)
# Probe 870 (0.08265 0.35042 0)
# Probe 871 (0.08307 0.30407 0)
# Probe 872 (0.12251 0.32757 0)
# Probe 873 (0.12474 0.2836 0)
# Probe 874 (0.08588 0.25959 0)
# Probe 875 (0.12608 0.2393 0)
# Probe 876 (0.08737 0.21438 0)
# Probe 877 (0.13016 0.19468 0)
# Probe 878 (0.08344 0.39883 0)
# Probe 879 (0.1598 0.30939 0)
# Probe 880 (0.15968 0.34871 0)
# Probe 881 (0.12019 0.36926 0)
# Probe 882 (0.65634 0.33475 0)
# Probe 883 (0.65219 0.32456 0)
# Probe 884 (0.72802 0.48637 0)
# Probe 885 (0.73453 0.49503 0)
# Probe 886 (0.60378 0.33513 0)
# Probe 887 (0.40982 0.38293 0)
# Probe 888 (0.39316 0.39921 0)
# Probe 889 (0.75983 0.74472 0)
# Probe 890 (0.35966 0.58494 0)
# Probe 891 (0.5092 0.30751 0)
# Probe 892 (0.59442 0.55449 0)
# Probe 893 (0.57264 0.26303 0)
# Probe 894 (0.77861 0.9587 0)
# Probe 895 (0.80058 0.91052 0)
# Probe 896 (0.84736 0.91496 0)
# Probe 897 (0.39005 0.7036 0)
# Probe 898 (0.55279 0.27653 0)
# Probe 899 (0.5384 0.29057 0)
# Probe 900 (0.08206 0.45181 0)
# Probe 901 (0.4283 0.87823 0)
# Probe 902 (0.42571 0.91787 0)
# Probe 903 (0.85189 0.69378 0)
# Probe 904 (0.52728 0.71455 0)
# Probe 905 (0.87288 0.95657 0)
# Probe 906 (0.89578 0.91506 0)
# Probe 907 (0.95152 0.91815 0)
# Probe 908 (0.91847 0.87035 0)
# Probe 909 (0.95875 0.62145 0)
# Probe 910 (0.43527 0.42823 0)
# Probe 911 (0.43447 0.40794 0)
# Probe 912 (0.27585 0.04208 0)
# Probe 913 (0.2991 0.08003 0)
# Probe 914 (0.25377 0.08261 0)
# Probe 915 (0.28302 0.12055 0)
# Probe 916 (0.23072 0.12671 0)
# Probe 917 (0.20917 0.08563 0)
# Probe 918 (0.18782 0.12581 0)
# Probe 919 (0.47561 0.96172 0)
# Probe 920 (0.49696 0.91788 0)
# Probe 921 (0.55162 0.1632 0)
# Probe 922 (0.04855 0.58035 0)
# Probe 923 (0.08706 0.54716 0)
# Probe 924 (0.04041 0.63264 0)
# Probe 925 (0.55427 0.53273 0)
# Probe 926 (0.08283 0.49827 0)
# Probe 927 (0.13243 0.56337 0)
# Probe 928 (0.09488 0.59304 0)
# Probe 929 (0.8454 0.61735 0)
# Probe 930 (0.64845 0.61798 0)
# Probe 931 (0.06787 0.87417 0)
# Probe 932 (0.28523 0.62997 0)
# Probe 933 (0.5214 0.39434 0)
# Probe 934 (0.72056 0.51655 0)
# Probe 935 (0.84385 0.42891 0)
# Probe 936 (0.62591 0.83278 0)
# Probe 937 (0.29852 0.81971 0)
# Probe 938 (0.25847 0.8028 0)
# Probe 939 (0.24202 0.76085 0)
# Probe 940 (0.59906 0.73372 0)
# Probe 941 (0.75217 0.54785 0)
# Probe 942 (0.92507 0.04743 0)
# Probe 943 (0.04425 0.12594 0)
# Probe 944 (0.08613 0.10053 0)
# Probe 945 (0.08121 0.04621 0)
# Probe 946 (0.12894 0.07543 0)
# Probe 947 (0.13025 0.12395 0)
# Probe 948 (0.08838 0.14494 0)
# Probe 949 (0.17513 0.95536 0)
# Probe 950 (0.57816 0.54943 0)
# Probe 951 (0.48042 0.35773 0)
# Probe 952 (0.59871 0.66008 0)
# Probe 953 (0.04231 0.2783 0)
# Probe 954 (0.04165 0.77677 0)
# Probe 955 (0.7855 0.35989 0)
# Probe 956 (0.52248 0.42378 0)
# Probe 957 (0.77819 0.3003 0)
# Probe 958 (0.44528 0.5403 0)
# Probe 959 (0.2788 0.25923 0)
# Probe 960 (0.5463 0.91502 0)
# Probe 961 (0.5197 0.88092 0)
# Probe 962 (0.22754 0.04184 0)
# Probe 963 (0.27171 0.5907 0)
# Probe 964 (0.67581 0.78563 0)
# Probe 965 (0.6948 0.14912 0)
# Probe 966 (0.65956 0.13818 0)
# Probe 967 (0.74579 0.47657 0)
# Probe 968 (0.34967 0.31243 0)
# Probe 969 (0.35518 0.34197 0)
# Probe 970 (0.69518 0.52784 0)
# Probe 971 (0.82209 0.67514 0)