# Probe 0 (0 0 0)
# Probe 1 (1 0 0)
# Probe 2 (1 1 0)
# Probe 3 (0 1 0)
# Probe 4 (0.76 0.75 0)
# Probe 5 (0.66 0.65 0)
# Probe 6 (0.56 0.75 0)
# Probe 7 (0.66 0.85 0)
# Probe 8 (0.05 0 0)
# Probe 9 (0.1 0 0)
# Probe 10 (0.15 0 0)
# Probe 11 (0.2 0 0)
# Probe 12 (0.25 0 0)
# Probe 13 (0.3 0 0)
# Probe 14 (0.35 0 0)
# Probe 15 (0.4 0 0)
# Probe 16 (0.45 0 0)
# Probe 17 (0.5 0 0)
# Probe 18 (0.55 0 0)
# Probe 19 (0.6 0 0)
# Probe 20 (0.65 0 0)
# Probe 21 (0.7 0 0)
# Probe 22 (0.75 0 0)
# Probe 23 (0.8 0 0)
# Probe 24 (0.85 0 0)
# Probe 25 (0.9 0 0)
# Probe 26 (0.95 0 0)
# Probe 27 (1 0.05 0)
# Probe 28 (1 0.1 0)
# Probe 29 (1 0.15 0)
# Probe 30 (1 0.2 0)
# Probe 31 (1 0.25 0)
# Probe 32 (1 0.3 0)
# Probe 33 (1 0.35 0)
# Probe 34 (1 0.4 0)
# Probe 35 (1 0.45 0)
# Probe 36 (1 0.5 0)
# Probe 37 (1 0.55 0)
# Probe 38 (1 0.6 0)
# Probe 39 (1 0.65 0)
# Probe 40 (1 0.7 0)
# Probe 41 (1 0.75 0)
# Probe 42 (1 0.8 0)
# Probe 43 (1 0.85 0)
# Probe 44 (1 0.9 0)
# Probe 45 (1 0.95 0)
# Probe 46 (0.95 1 0)
# Probe 47 (0.9 1 0)
# Probe 48 (0.85 1 0)
# Probe 49 (0.8 1 0)
# Probe 50 (0.75 1 0)
# Probe 51 (0.7 1 0)
# Probe 52 (0.65 1 0)
# Probe 53 (0.6 1 0)
# Probe 54 (0.55 1 0)
# Probe 55 (0.5 1 0)
# Probe 56 (0.45 1 0)
# Probe 57 (0.4 1 0)
# Probe 58 (0.35 1 0)
# Probe 59 (0.3 1 0)
# Probe 60 (0.25 1 0)
# Probe 61 (0.2 1 0)
# Probe 62 (0.15 1 0)
# Probe 63 (0.1 1 0)
# Probe 64 (0.05 1 0)
# Probe 65 (0 0.95 0)
# Probe 66 (0 0.9 0)
# Probe 67 (0 0.85 0)
# Probe 68 (0 0.8 0)
# Probe 69 (0 0.75 0)
# Probe 70 (0 0.7 0)
# Probe 71 (0 0.65 0)
# Probe 72 (0 0.6 0)
# Probe 73 (0 0.55 0)
# Probe 74 (0 0.5 0)
# Probe 75 (0 0.45 0)
# Probe 76 (0 0.4 0)
# Probe 77 (0 0.35 0)
# Probe 78 (0 0.3 0)
# Probe 79 (0 0.25 0)
# Probe 80 (0 0.2 0)
# Probe 81 (0 0.15 0)
# Probe 82 (0 0.1 0)
# Probe 83 (0 0.05 0)
# Probe 84 (0.75952 0.7402 0)
# Probe 85 (0.75808 0.73049 0)
# Probe 86 (0.75569 0.72097 0)
# Probe 87 (0.75239 0.71173 0)
# Probe 88 (0.74819 0.70286 0)
# Probe 89 (0.74315 0.69444 0)
# Probe 90 (0.7373 0.68656 0)
# Probe 91 (0.73071 0.67929 0)
# Probe 92 (0.72344 0.6727 0)
# Probe 93 (0.71556 0.66685 0)
# Probe 94 (0.70714 0.66181 0)
# Probe 95 (0.69827 0.65761 0)
# Probe 96 (0.68903 0.65431 0)
# Probe 97 (0.67951 0.65192 0)
# Probe 98 (0.6698 0.65048 0)
# Probe 99 (0.6502 0.65048 0)
# Probe 100 (0.64049 0.65192 0)
# Probe 101 (0.63097 0.65431 0)
# Probe 102 (0.62173 0.65761 0)
# Probe 103 (0.61286 0.66181 0)
# Probe 104 (0.60444 0.66685 0)
# Probe 105 (0.59656 0.6727 0)
# Probe 106 (0.58929 0.67929 0)
# Probe 107 (0.5827 0.68656 0)
# Probe 108 (0.57685 0.69444 0)
# Probe 109 (0.57181 0.70286 0)
# Probe 110 (0.56761 0.71173 0)
# Probe 111 (0.56431 0.72097 0)
# Probe 112 (0.56192 0.73049 0)
# Probe 113 (0.56048 0.7402 0)
# Probe 114 (0.56048 0.7598 0)
# Probe 115 (0.56192 0.76951 0)
# Probe 116 (0.56431 0.77903 0)
# Probe 117 (0.56761 0.78827 0)
# Probe 118 (0.57181 0.79714 0)
# Probe 119 (0.57685 0.80556 0)
# Probe 120 (0.5827 0.81344 0)
# Probe 121 (0.58929 0.82071 0)
# Probe 122 (0.59656 0.8273 0)
# Probe 123 (0.60444 0.83315 0)
# Probe 124 (0.61286 0.83819 0)
# Probe 125 (0.62173 0.84239 0)
# Probe 126 (0.63097 0.84569 0)
# Probe 127 (0.64049 0.84808 0)
# Probe 128 (0.6502 0.84952 0)
# Probe 129 (0.6698 0.84952 0)
# Probe 130 (0.67951 0.84808 0)
# Probe 131 (0.68903 0.84569 0)
# Probe 132 (0.69827 0.84239 0)
# Probe 133 (0.70714 0.83819 0)
# Probe 134 (0.71556 0.83315 0)
# Probe 135 (0.72344 0.8273 0)
# Probe 136 (0.73071 0.82071 0)
# Probe 137 (0.7373 0.81344 0)
# Probe 138 (0.74315 0.80556 0)
# Probe 139 (0.74819 0.79714 0)
# Probe 140 (0.75239 0.78827 0)
# Probe 141 (0.75569 0.77903 0)
# Probe 142 (0.75808 0.76951 0)
# Probe 143 (0.75952 0.7598 0)
# Probe 144 (0.37765 0.04169 0)
# Probe 145 (0.04718 0.42703 0)
# Probe 146 (0.575 0.0433 0)
# Probe 147 (0.0433 0.625 0)
# Probe 148 (0.95743 0.36971 0)
# Probe 149 (0.32665 0.95802 0)
# Probe 150 (0.75266 0.80555 0)
# Probe 151 (0.72358 0.045 0)
# Probe 152 (0.76513 0.77633 0)
# Probe 153 (0.03855 0.27572 0)
# Probe 154 (0.76856 0.74486 0)
# Probe 155 (0.95612 0.53027 0)
# Probe 156 (0.03977 0.7753 0)
# Probe 157 (0.73374 0.83134 0)
# Probe 158 (0.59544 0.83705 0)
# Probe 159 (0.95564 0.23313 0)
# Probe 160 (0.23223 0.04365 0)
# Probe 161 (0.70634 0.84797 0)
# Probe 162 (0.61152 0.84933 0)
# Probe 163 (0.68671 0.85554 0)
# Probe 164 (0.66565 0.85897 0)
# Probe 165 (0.63366 0.8557 0)
# Probe 166 (0.95836 0.66961 0)
# Probe 167 (0.47823 0.95524 0)
# Probe 168 (0.95811 0.82557 0)
# Probe 169 (0.17294 0.95943 0)
# Probe 170 (0.82176 0.95876 0)
# Probe 171 (0.03828 0.52337 0)
# Probe 172 (0.47695 0.04565 0)
# Probe 173 (0.82522 0.04222 0)
# Probe 174 (0.04325 0.17517 0)
# Probe 175 (0.57567 0.9584 0)
# Probe 176 (0.04475 0.87505 0)
# Probe 177 (0.95891 0.12544 0)
# Probe 178 (0.12868 0.04151 0)
# Probe 179 (0.72168 0.9619 0)
# Probe 180 (0.92645 0.95864 0)
# Probe 181 (0.07187 0.96062 0)
# Probe 182 (0.925 0.0433 0)
# Probe 183 (0.04236 0.07524 0)
# Probe 184 (0.7787 0.95851 0)
# Probe 185 (0.80264 0.92334 0)
# Probe 186 (0.83871 0.92159 0)
# Probe 187 (0.8176 0.89298 0)
# Probe 188 (0.78786 0.89338 0)
# Probe 189 (0.79741 0.86595 0)
# Probe 190 (0.82879 0.86588 0)
# Probe 191 (0.81235 0.84324 0)
# Probe 192 (0.83959 0.84041 0)
# Probe 193 (0.82061 0.81783 0)
# Probe 194 (0.85009 0.81579 0)
# Probe 195 (0.83548 0.79577 0)
# Probe 196 (0.86107 0.79188 0)
# Probe 197 (0.84288 0.77095 0)
# Probe 198 (0.87213 0.76742 0)
# Probe 199 (0.85556 0.74614 0)
# Probe 200 (0.85692 0.8622 0)
# Probe 201 (0.83037 0.74792 0)
# Probe 202 (0.84011 0.72597 0)
# Probe 203 (0.76208 0.71342 0)
# Probe 204 (0.81469 0.7304 0)
# Probe 205 (0.82522 0.7072 0)
# Probe 206 (0.84936 0.70354 0)
# Probe 207 (0.83362 0.684 0)
# Probe 208 (0.74618 0.68607 0)
# Probe 209 (0.85874 0.67987 0)
# Probe 210 (0.84173 0.66055 0)
# Probe 211 (0.81668 0.66542 0)
# Probe 212 (0.82433 0.64136 0)
# Probe 213 (0.8498 0.63613 0)
# Probe 214 (0.83144 0.61777 0)
# Probe 215 (0.80743 0.62334 0)
# Probe 216 (0.8136 0.60034 0)
# Probe 217 (0.71705 0.65516 0)
# Probe 218 (0.73293 0.66971 0)
# Probe 219 (0.788 0.60873 0)
# Probe 220 (0.79608 0.58457 0)
# Probe 221 (0.77421 0.59028 0)
# Probe 222 (0.77979 0.56828 0)
# Probe 223 (0.75792 0.57381 0)
# Probe 224 (0.76377 0.55181 0)
# Probe 225 (0.74162 0.55763 0)
# Probe 226 (0.74747 0.5356 0)
# Probe 227 (0.72566 0.54182 0)
# Probe 228 (0.73103 0.51948 0)
# Probe 229 (0.70893 0.52553 0)
# Probe 230 (0.71441 0.50311 0)
# Probe 231 (0.69176 0.50938 0)
# Probe 232 (0.69753 0.48611 0)
# Probe 233 (0.6743 0.49182 0)
# Probe 234 (0.68094 0.46828 0)
# Probe 235 (0.65514 0.47489 0)
# Probe 236 (0.66254 0.44918 0)
# Probe 237 (0.63447 0.45736 0)
# Probe 238 (0.64163 0.42947 0)
# Probe 239 (0.61419 0.43738 0)
# Probe 240 (0.607 0.4657 0)
# Probe 241 (0.58665 0.44565 0)
# Probe 242 (0.57969 0.47352 0)
# Probe 243 (0.55903 0.45374 0)
# Probe 244 (0.55208 0.48182 0)
# Probe 245 (0.5312 0.46193 0)
# Probe 246 (0.52429 0.49033 0)
# Probe 247 (0.50331 0.47042 0)
# Probe 248 (0.49618 0.49899 0)
# Probe 249 (0.4749 0.47882 0)
# Probe 250 (0.46776 0.50872 0)
# Probe 251 (0.58611 0.66922 0)
# Probe 252 (0.48004 0.44765 0)
# Probe 253 (0.44528 0.4871 0)
# Probe 254 (0.4387 0.518 0)
# Probe 255 (0.62364 0.6477 0)
# Probe 256 (0.59299 0.41693 0)
# Probe 257 (0.41596 0.49598 0)
# Probe 258 (0.40872 0.52695 0)
# Probe 259 (0.67067 0.4219 0)
# Probe 260 (0.6549 0.64164 0)
# Probe 261 (0.43142 0.5484 0)
# Probe 262 (0.40216 0.55778 0)
# Probe 263 (0.42443 0.57705 0)
# Probe 264 (0.39694 0.58563 0)
# Probe 265 (0.5669 0.6945 0)
# Probe 266 (0.42285 0.60717 0)
# Probe 267 (0.39143 0.61395 0)
# Probe 268 (0.4132 0.63527 0)
# Probe 269 (0.5525 0.76574 0)
# Probe 270 (0.55267 0.73382 0)
# Probe 271 (0.38409 0.64205 0)
# Probe 272 (0.38465 0.50588 0)
# Probe 273 (0.39282 0.47339 0)
# Probe 274 (0.36829 0.59374 0)
# Probe 275 (0.40602 0.66358 0)
# Probe 276 (0.37557 0.67167 0)
# Probe 277 (0.39898 0.6934 0)
# Probe 278 (0.72117 0.4795 0)
# Probe 279 (0.77001 0.52922 0)
# Probe 280 (0.36169 0.48239 0)
# Probe 281 (0.3696 0.44864 0)
# Probe 282 (0.36831 0.70308 0)
# Probe 283 (0.34353 0.68018 0)
# Probe 284 (0.44731 0.59232 0)
# Probe 285 (0.66596 0.51506 0)
# Probe 286 (0.33592 0.45875 0)
# Probe 287 (0.34451 0.42357 0)
# Probe 288 (0.68583 0.64491 0)
# Probe 289 (0.54538 0.50905 0)
# Probe 290 (0.33568 0.71996 0)
# Probe 291 (0.3092 0.6907 0)
# Probe 292 (0.39341 0.72408 0)
# Probe 293 (0.30931 0.43422 0)
# Probe 294 (0.31791 0.39827 0)
# Probe 295 (0.30124 0.47025 0)
# Probe 296 (0.3539 0.38844 0)
# Probe 297 (0.32702 0.36203 0)
# Probe 298 (0.36456 0.35156 0)
# Probe 299 (0.33572 0.32523 0)
# Probe 300 (0.37482 0.3139 0)
# Probe 301 (0.29994 0.72594 0)
# Probe 302 (0.60421 0.65675 0)
# Probe 303 (0.55796 0.71349 0)
# Probe 304 (0.55688 0.78739 0)
# Probe 305 (0.28963 0.37593 0)
# Probe 306 (0.56688 0.80582 0)
# Probe 307 (0.34488 0.28648 0)
# Probe 308 (0.38447 0.27503 0)
# Probe 309 (0.27293 0.69998 0)
# Probe 310 (0.26385 0.73737 0)
# Probe 311 (0.42749 0.68301 0)
# Probe 312 (0.41377 0.30302 0)
# Probe 313 (0.4233 0.26474 0)
# Probe 314 (0.45177 0.29242 0)
# Probe 315 (0.46157 0.25474 0)
# Probe 316 (0.48927 0.2824 0)
# Probe 317 (0.49965 0.2446 0)
# Probe 318 (0.52717 0.27223 0)
# Probe 319 (0.53759 0.23447 0)
# Probe 320 (0.56495 0.262 0)
# Probe 321 (0.5756 0.22424 0)
# Probe 322 (0.60318 0.252 0)
# Probe 323 (0.71865 0.56458 0)
# Probe 324 (0.23559 0.71021 0)
# Probe 325 (0.24331 0.66937 0)
# Probe 326 (0.22572 0.74952 0)
# Probe 327 (0.81931 0.57856 0)
# Probe 328 (0.35569 0.24625 0)
# Probe 329 (0.31462 0.25841 0)
# Probe 330 (0.29378 0.76534 0)
# Probe 331 (0.6139 0.21378 0)
# Probe 332 (0.64253 0.24215 0)
# Probe 333 (0.85734 0.61002 0)
# Probe 334 (0.326 0.21627 0)
# Probe 335 (0.28396 0.22863 0)
# Probe 336 (0.43432 0.2256 0)
# Probe 337 (0.7512 0.59651 0)
# Probe 338 (0.27354 0.44498 0)
# Probe 339 (0.26497 0.48328 0)
# Probe 340 (0.23583 0.45557 0)
# Probe 341 (0.22716 0.49468 0)
# Probe 342 (0.25676 0.52214 0)
# Probe 343 (0.21864 0.5338 0)
# Probe 344 (0.65194 0.20239 0)
# Probe 345 (0.68205 0.23184 0)
# Probe 346 (0.67108 0.27177 0)
# Probe 347 (0.71103 0.26164 0)
# Probe 348 (0.72256 0.22163 0)
# Probe 349 (0.75146 0.25194 0)
# Probe 350 (0.73906 0.28979 0)
# Probe 351 (0.7797 0.28164 0)
# Probe 352 (0.76602 0.317 0)
# Probe 353 (0.76373 0.21127 0)
# Probe 354 (0.64865 0.40042 0)
# Probe 355 (0.19522 0.72018 0)
# Probe 356 (0.53794 0.43304 0)
# Probe 357 (0.51137 0.20534 0)
# Probe 358 (0.80767 0.31213 0)
# Probe 359 (0.79611 0.35113 0)
# Probe 360 (0.1857 0.76203 0)
# Probe 361 (0.21693 0.79087 0)
# Probe 362 (0.78597 0.63167 0)
# Probe 363 (0.19734 0.46728 0)
# Probe 364 (0.20645 0.42715 0)
# Probe 365 (0.48968 0.52756 0)
# Probe 366 (0.47943 0.31956 0)
# Probe 367 (0.87617 0.69935 0)
# Probe 368 (0.59918 0.49309 0)
# Probe 369 (0.55312 0.30047 0)
# Probe 370 (0.29479 0.18578 0)
# Probe 371 (0.25214 0.19792 0)
# Probe 372 (0.24159 0.24147 0)
# Probe 373 (0.20909 0.21042 0)
# Probe 374 (0.19893 0.25464 0)
# Probe 375 (0.3965 0.38214 0)
# Probe 376 (0.17572 0.80429 0)
# Probe 377 (0.82058 0.27171 0)
# Probe 378 (0.67822 0.39267 0)
# Probe 379 (0.58171 0.186 0)
# Probe 380 (0.33753 0.17389 0)
# Probe 381 (0.73393 0.17979 0)
# Probe 382 (0.77625 0.16878 0)
# Probe 383 (0.20815 0.83391 0)
# Probe 384 (0.35323 0.52033 0)
# Probe 385 (0.8501 0.30346 0)
# Probe 386 (0.65577 0.36981 0)
# Probe 387 (0.77166 0.87044 0)
# Probe 388 (0.15445 0.73266 0)
# Probe 389 (0.16324 0.68738 0)
# Probe 390 (0.30568 0.14246 0)
# Probe 391 (0.24851 0.56028 0)
# Probe 392 (0.21022 0.57315 0)
# Probe 393 (0.17934 0.54577 0)
# Probe 394 (0.31876 0.65691 0)
# Probe 395 (0.16652 0.43896 0)
# Probe 396 (0.17606 0.39747 0)
# Probe 397 (0.70005 0.41556 0)
# Probe 398 (0.1656 0.84788 0)
# Probe 399 (0.16448 0.22047 0)
# Probe 400 (0.176 0.17827 0)
# Probe 401 (0.16991 0.58489 0)
# Probe 402 (0.81055 0.79508 0)
# Probe 403 (0.76084 0.89179 0)
# Probe 404 (0.15686 0.26931 0)
# Probe 405 (0.12161 0.69932 0)
# Probe 406 (0.80785 0.7493 0)
# Probe 407 (0.87751 0.62983 0)
# Probe 408 (0.88638 0.60125 0)
# Probe 409 (0.80406 0.71273 0)
# Probe 410 (0.23222 0.28494 0)
# Probe 411 (0.74881 0.86747 0)
# Probe 412 (0.73691 0.88882 0)
# Probe 413 (0.70939 0.38463 0)
# Probe 414 (0.7319 0.40868 0)
# Probe 415 (0.76019 0.85217 0)
# Probe 416 (0.87783 0.81386 0)
# Probe 417 (0.13865 0.5577 0)
# Probe 418 (0.28564 0.54879 0)
# Probe 419 (0.86303 0.26153 0)
# Probe 420 (0.89301 0.29435 0)
# Probe 421 (0.88069 0.33518 0)
# Probe 422 (0.27785 0.58609 0)
# Probe 423 (0.12995 0.60031 0)
# Probe 424 (0.13454 0.40997 0)
# Probe 425 (0.12607 0.45098 0)
# Probe 426 (0.14461 0.3669 0)
# Probe 427 (0.13251 0.81677 0)
# Probe 428 (0.40253 0.44012 0)
# Probe 429 (0.24952 0.8203 0)
# Probe 430 (0.24083 0.86344 0)
# Probe 431 (0.2827 0.85018 0)
# Probe 432 (0.34913 0.13065 0)
# Probe 433 (0.31642 0.09646 0)
# Probe 434 (0.38063 0.16171 0)
# Probe 435 (0.3926 0.11932 0)
# Probe 436 (0.4239 0.15022 0)
# Probe 437 (0.74595 0.13468 0)
# Probe 438 (0.70214 0.14743 0)
# Probe 439 (0.12074 0.23293 0)
# Probe 440 (0.7904 0.12377 0)
# Probe 441 (0.81975 0.1578 0)
# Probe 442 (0.21916 0.38388 0)
# Probe 443 (0.90883 0.6224 0)
# Probe 444 (0.91888 0.59281 0)
# Probe 445 (0.89246 0.56638 0)
# Probe 446 (0.27353 0.89277 0)
# Probe 447 (0.3156 0.881 0)
# Probe 448 (0.32402 0.83706 0)
# Probe 449 (0.35547 0.86537 0)
# Probe 450 (0.36345 0.82526 0)
# Probe 451 (0.39336 0.85219 0)
# Probe 452 (0.40123 0.81485 0)
# Probe 453 (0.42799 0.83832 0)
# Probe 454 (0.43556 0.80448 0)
# Probe 455 (0.4583 0.82518 0)
# Probe 456 (0.46409 0.79722 0)
# Probe 457 (0.48822 0.81372 0)
# Probe 458 (0.48117 0.84188 0)
# Probe 459 (0.49029 0.79063 0)
# Probe 460 (0.47293 0.77374 0)
# Probe 461 (0.4947 0.76854 0)
# Probe 462 (0.47948 0.75273 0)
# Probe 463 (0.50579 0.83294 0)
# Probe 464 (0.5017 0.85747 0)
# Probe 465 (0.52749 0.84644 0)
# Probe 466 (0.5797 0.82278 0)
# Probe 467 (0.50232 0.74855 0)
# Probe 468 (0.48552 0.73269 0)
# Probe 469 (0.50476 0.72837 0)
# Probe 470 (0.49108 0.71427 0)
# Probe 471 (0.5119 0.71021 0)
# Probe 472 (0.49673 0.69637 0)
# Probe 473 (0.51424 0.69165 0)
# Probe 474 (0.50146 0.67859 0)
# Probe 475 (0.51875 0.67433 0)
# Probe 476 (0.50626 0.66121 0)
# Probe 477 (0.52366 0.65698 0)
# Probe 478 (0.51117 0.64373 0)
# Probe 479 (0.52871 0.63943 0)
# Probe 480 (0.51624 0.62604 0)
# Probe 481 (0.53439 0.62136 0)
# Probe 482 (0.52107 0.60725 0)
# Probe 483 (0.53999 0.60275 0)
# Probe 484 (0.55249 0.61591 0)
# Probe 485 (0.55866 0.59859 0)
# Probe 486 (0.57085 0.61099 0)
# Probe 487 (0.57653 0.59496 0)
# Probe 488 (0.58843 0.60756 0)
# Probe 489 (0.59393 0.59122 0)
# Probe 490 (0.60561 0.60358 0)
# Probe 491 (0.61107 0.58701 0)
# Probe 492 (0.62276 0.59944 0)
# Probe 493 (0.62784 0.58304 0)
# Probe 494 (0.63934 0.59549 0)
# Probe 495 (0.59712 0.57462 0)
# Probe 496 (0.64458 0.5793 0)
# Probe 497 (0.65609 0.59171 0)
# Probe 498 (0.63397 0.56609 0)
# Probe 499 (0.49317 0.64809 0)
# Probe 500 (0.66137 0.57543 0)
# Probe 501 (0.54589 0.58528 0)
# Probe 502 (0.67279 0.58811 0)
# Probe 503 (0.54026 0.65336 0)
# Probe 504 (0.52138 0.87302 0)
# Probe 505 (0.54482 0.86391 0)
# Probe 506 (0.66767 0.60373 0)
# Probe 507 (0.68355 0.60045 0)
# Probe 508 (0.47768 0.87025 0)
# Probe 509 (0.5092 0.78182 0)
# Probe 510 (0.58369 0.62438 0)
# Probe 511 (0.63297 0.60954 0)
# Probe 512 (0.46336 0.7384 0)
# Probe 513 (0.53058 0.68645 0)
# Probe 514 (0.52676 0.82385 0)
# Probe 515 (0.50167 0.61211 0)
# Probe 516 (0.50696 0.59186 0)
# Probe 517 (0.51843 0.73962 0)
# Probe 518 (0.38657 0.88977 0)
# Probe 519 (0.4836 0.6821 0)
# Probe 520 (0.6784 0.57116 0)
# Probe 521 (0.54079 0.88889 0)
# Probe 522 (0.56368 0.87887 0)
# Probe 523 (0.67907 0.61524 0)
# Probe 524 (0.69433 0.61244 0)
# Probe 525 (0.69916 0.59755 0)
# Probe 526 (0.7092 0.60967 0)
# Probe 527 (0.70446 0.62405 0)
# Probe 528 (0.7189 0.62155 0)
# Probe 529 (0.66342 0.6185 0)
# Probe 530 (0.51087 0.90119 0)
# Probe 531 (0.6651 0.55788 0)
# Probe 532 (0.56838 0.8563 0)
# Probe 533 (0.58411 0.87231 0)
# Probe 534 (0.58259 0.89294 0)
# Probe 535 (0.60384 0.88161 0)
# Probe 536 (0.6026 0.90687 0)
# Probe 537 (0.62562 0.89274 0)
# Probe 538 (0.62312 0.91869 0)
# Probe 539 (0.64582 0.90695 0)
# Probe 540 (0.37398 0.78897 0)
# Probe 541 (0.27354 0.1108 0)
# Probe 542 (0.6244 0.37883 0)
# Probe 543 (0.63207 0.34635 0)
# Probe 544 (0.59997 0.35519 0)
# Probe 545 (0.66404 0.33773 0)
# Probe 546 (0.71494 0.59557 0)
# Probe 547 (0.10388 0.3801 0)
# Probe 548 (0.10929 0.33453 0)
# Probe 549 (0.60754 0.32239 0)
# Probe 550 (0.19928 0.61454 0)
# Probe 551 (0.12279 0.86228 0)
# Probe 552 (0.72633 0.86681 0)
# Probe 553 (0.71482 0.88739 0)
# Probe 554 (0.71453 0.63439 0)
# Probe 555 (0.7283 0.6329 0)
# Probe 556 (0.7339 0.61978 0)
# Probe 557 (0.74325 0.63132 0)
# Probe 558 (0.73657 0.64624 0)
# Probe 559 (0.75212 0.64376 0)
# Probe 560 (0.64632 0.88214 0)
# Probe 561 (0.66386 0.89361 0)
# Probe 562 (0.66815 0.91886 0)
# Probe 563 (0.48618 0.59745 0)
# Probe 564 (0.49047 0.57585 0)
# Probe 565 (0.51441 0.57035 0)
# Probe 566 (0.48153 0.61835 0)
# Probe 567 (0.88385 0.74294 0)
# Probe 568 (0.90297 0.76657 0)
# Probe 569 (0.91641 0.73204 0)
# Probe 570 (0.67417 0.62883 0)
# Probe 571 (0.68317 0.55232 0)
# Probe 572 (0.74141 0.37709 0)
# Probe 573 (0.76399 0.40212 0)
# Probe 574 (0.75099 0.43734 0)
# Probe 575 (0.78619 0.42732 0)
# Probe 576 (0.77669 0.45952 0)
# Probe 577 (0.81001 0.45285 0)
# Probe 578 (0.81916 0.41864 0)
# Probe 579 (0.84468 0.44508 0)
# Probe 580 (0.83315 0.47973 0)
# Probe 581 (0.86849 0.47278 0)
# Probe 582 (0.88207 0.4371 0)
# Probe 583 (0.85582 0.50688 0)
# Probe 584 (0.90689 0.46675 0)
# Probe 585 (0.7177 0.35386 0)
# Probe 586 (0.82301 0.51321 0)
# Probe 587 (0.88722 0.67485 0)
# Probe 588 (0.83529 0.11521 0)
# Probe 589 (0.86746 0.14852 0)
# Probe 590 (0.31262 0.5739 0)
# Probe 591 (0.43578 0.10935 0)
# Probe 592 (0.46707 0.13886 0)
# Probe 593 (0.11227 0.74572 0)
# Probe 594 (0.07958 0.71273 0)
# Probe 595 (0.10178 0.57449 0)
# Probe 596 (0.10689 0.52783 0)
# Probe 597 (0.93734 0.76439 0)
# Probe 598 (0.23187 0.90675 0)
# Probe 599 (0.84216 0.54065 0)
# Probe 600 (0.74608 0.91185 0)
# Probe 601 (0.8335 0.23087 0)
# Probe 602 (0.87553 0.21872 0)
# Probe 603 (0.73695 0.85484 0)
# Probe 604 (0.53726 0.91863 0)
# Probe 605 (0.88196 0.11015 0)
# Probe 606 (0.92123 0.43024 0)
# Probe 607 (0.55086 0.84361 0)
# Probe 608 (0.51093 0.81132 0)
# Probe 609 (0.53087 0.80628 0)
# Probe 610 (0.54553 0.81562 0)
# Probe 611 (0.75857 0.62797 0)
# Probe 612 (0.8952 0.40284 0)
# Probe 613 (0.7471 0.65703 0)
# Probe 614 (0.76067 0.6561 0)
# Probe 615 (0.09092 0.67009 0)
# Probe 616 (0.08444 0.83505 0)
# Probe 617 (0.07005 0.35126 0)
# Probe 618 (0.28221 0.06589 0)
# Probe 619 (0.86335 0.95067 0)
# Probe 620 (0.8788 0.90909 0)
# Probe 621 (0.75554 0.66778 0)
# Probe 622 (0.76971 0.66792 0)
# Probe 623 (0.7632 0.6812 0)
# Probe 624 (0.77886 0.6799 0)
# Probe 625 (0.77334 0.69328 0)
# Probe 626 (0.78301 0.66508 0)
# Probe 627 (0.78874 0.69159 0)
# Probe 628 (0.78024 0.70446 0)
# Probe 629 (0.79745 0.72684 0)
# Probe 630 (0.78885 0.74734 0)
# Probe 631 (0.70566 0.86957 0)
# Probe 632 (0.26192 0.93936 0)
# Probe 633 (0.81939 0.76626 0)
# Probe 634 (0.80105 0.76778 0)
# Probe 635 (0.94731 0.61192 0)
# Probe 636 (0.51402 0.76486 0)
# Probe 637 (0.52777 0.77692 0)
# Probe 638 (0.53122 0.76093 0)
# Probe 639 (0.15663 0.89054 0)
# Probe 640 (0.69558 0.88649 0)
# Probe 641 (0.7055 0.90722 0)
# Probe 642 (0.70485 0.58145 0)
# Probe 643 (0.80284 0.64501 0)
# Probe 644 (0.54734 0.79874 0)
# Probe 645 (0.78752 0.84185 0)
# Probe 646 (0.79688 0.82452 0)
# Probe 647 (0.77738 0.82485 0)
# Probe 648 (0.78463 0.8096 0)
# Probe 649 (0.92544 0.32921 0)
# Probe 650 (0.93647 0.28473 0)
# Probe 651 (0.7137 0.10429 0)
# Probe 652 (0.66906 0.11532 0)
# Probe 653 (0.70257 0.63827 0)
# Probe 654 (0.69058 0.62753 0)
# Probe 655 (0.64999 0.60872 0)
# Probe 656 (0.64968 0.62302 0)
# Probe 657 (0.63484 0.62687 0)
# Probe 658 (0.56693 0.83859 0)
# Probe 659 (0.74879 0.83692 0)
# Probe 660 (0.30458 0.60835 0)
# Probe 661 (0.27045 0.62189 0)
# Probe 662 (0.52225 0.72484 0)
# Probe 663 (0.53336 0.73581 0)
# Probe 664 (0.53592 0.72086 0)
# Probe 665 (0.90609 0.69773 0)
# Probe 666 (0.41048 0.78065 0)
# Probe 667 (0.1562 0.32324 0)
# Probe 668 (0.53515 0.66986 0)
# Probe 669 (0.55095 0.66592 0)
# Probe 670 (0.55608 0.65087 0)
# Probe 671 (0.56591 0.66278 0)
# Probe 672 (0.57047 0.64837 0)
# Probe 673 (0.56111 0.67606 0)
# Probe 674 (0.56232 0.63864 0)
# Probe 675 (0.67992 0.9602 0)
# Probe 676 (0.57417 0.67289 0)
# Probe 677 (0.11937 0.90631 0)
# Probe 678 (0.81218 0.5404 0)
# Probe 679 (0.73552 0.57867 0)
# Probe 680 (0.59988 0.61961 0)
# Probe 681 (0.59576 0.63604 0)
# Probe 682 (0.60889 0.63088 0)
# Probe 683 (0.54828 0.68223 0)
# Probe 684 (0.54169 0.69637 0)
# Probe 685 (0.52737 0.70105 0)
# Probe 686 (0.47845 0.09646 0)
# Probe 687 (0.51028 0.12722 0)
# Probe 688 (0.51978 0.08442 0)
# Probe 689 (0.55065 0.1155 0)
# Probe 690 (0.5415 0.16063 0)
# Probe 691 (0.62287 0.87449 0)
# Probe 692 (0.58041 0.92221 0)
# Probe 693 (0.9581 0.7336 0)
# Probe 694 (0.4511 0.1816 0)
# Probe 695 (0.61677 0.61574 0)
# Probe 696 (0.11123 0.28308 0)
# Probe 697 (0.43347 0.65573 0)
# Probe 698 (0.45305 0.67347 0)
# Probe 699 (0.45184 0.69994 0)
# Probe 700 (0.45607 0.64802 0)
# Probe 701 (0.42216 0.71266 0)
# Probe 702 (0.58189 0.84259 0)
# Probe 703 (0.60044 0.85468 0)
# Probe 704 (0.45067 0.56751 0)
# Probe 705 (0.46112 0.54209 0)
# Probe 706 (0.5725 0.50051 0)
# Probe 707 (0.56581 0.52625 0)
# Probe 708 (0.53919 0.53465 0)
# Probe 709 (0.55906 0.54937 0)
# Probe 710 (0.58253 0.5437 0)
# Probe 711 (0.5907 0.51903 0)
# Probe 712 (0.61569 0.51396 0)
# Probe 713 (0.60634 0.53818 0)
# Probe 714 (0.63057 0.53286 0)
# Probe 715 (0.62952 0.4875 0)
# Probe 716 (0.64114 0.51214 0)
# Probe 717 (0.6175 0.96103 0)
# Probe 718 (0.79725 0.4894 0)
# Probe 719 (0.76489 0.48909 0)
# Probe 720 (0.41863 0.74437 0)
# Probe 721 (0.53062 0.95609 0)
# Probe 722 (0.44299 0.77192 0)
# Probe 723 (0.76926 0.81262 0)
# Probe 724 (0.77371 0.79627 0)
# Probe 725 (0.76167 0.82504 0)
# Probe 726 (0.79038 0.7953 0)
# Probe 727 (0.78139 0.78328 0)
# Probe 728 (0.43933 0.63129 0)
# Probe 729 (0.51728 0.51793 0)
# Probe 730 (0.80799 0.69181 0)
# Probe 731 (0.57703 0.56555 0)
# Probe 732 (0.57201 0.68412 0)
# Probe 733 (0.63367 0.64487 0)
# Probe 734 (0.6275 0.63724 0)
# Probe 735 (0.61377 0.65161 0)
# Probe 736 (0.6051 0.64502 0)
# Probe 737 (0.59528 0.6503 0)
# Probe 738 (0.6835 0.07579 0)
# Probe 739 (0.63911 0.08222 0)
# Probe 740 (0.62663 0.12915 0)
# Probe 741 (0.75996 0.08323 0)
# Probe 742 (0.3217 0.53772 0)
# Probe 743 (0.91771 0.80449 0)
# Probe 744 (0.76165 0.69406 0)
# Probe 745 (0.66532 0.64175 0)
# Probe 746 (0.65947 0.63115 0)
# Probe 747 (0.6443 0.64302 0)
# Probe 748 (0.34888 0.56191 0)
# Probe 749 (0.76774 0.6103 0)
# Probe 750 (0.42816 0.9591 0)
# Probe 751 (0.45012 0.92021 0)
# Probe 752 (0.37953 0.95724 0)
# Probe 753 (0.55167 0.74455 0)
# Probe 754 (0.67626 0.64212 0)
# Probe 755 (0.94716 0.45975 0)
# Probe 756 (0.28963 0.80738 0)
# Probe 757 (0.56192 0.70358 0)
# Probe 758 (0.55519 0.69451 0)
# Probe 759 (0.55483 0.72351 0)
# Probe 760 (0.70583 0.65092 0)
# Probe 761 (0.53475 0.55668 0)
# Probe 762 (0.55167 0.75532 0)
# Probe 763 (0.54052 0.74909 0)
# Probe 764 (0.55425 0.77634 0)
# Probe 765 (0.54623 0.78468 0)
# Probe 766 (0.54178 0.77234 0)
# Probe 767 (0.95928 0.87238 0)
# Probe 768 (0.92348 0.85076 0)
# Probe 769 (0.92008 0.891 0)
# Probe 770 (0.58377 0.64436 0)
# Probe 771 (0.51648 0.30942 0)
# Probe 772 (0.50629 0.34545 0)
# Probe 773 (0.47083 0.35517 0)
# Probe 774 (0.4961 0.38031 0)
# Probe 775 (0.46232 0.39009 0)
# Probe 776 (0.5308 0.37127 0)
# Probe 777 (0.43447 0.36652 0)
# Probe 778 (0.429 0.4009 0)
# Probe 779 (0.4565 0.42441 0)
# Probe 780 (0.54133 0.33733 0)
# Probe 781 (0.40456 0.34106 0)
# Probe 782 (0.42508 0.88086 0)
# Probe 783 (0.32992 0.7903 0)
# Probe 784 (0.34755 0.75855 0)
# Probe 785 (0.76724 0.76595 0)
# Probe 786 (0.76204 0.78651 0)
# Probe 787 (0.76848 0.75529 0)
# Probe 788 (0.77721 0.76253 0)
# Probe 789 (0.76758 0.73415 0)
# Probe 790 (0.87566 0.53491 0)
# Probe 791 (0.03784 0.57264 0)
# Probe 792 (0.95898 0.57184 0)
# Probe 793 (0.03996 0.47736 0)
# Probe 794 (0.29325 0.50906 0)
# Probe 795 (0.72301 0.64446 0)
# Probe 796 (0.76543 0.72352 0)
# Probe 797 (0.77622 0.72637 0)
# Probe 798 (0.57268 0.81476 0)
# Probe 799 (0.56161 0.81574 0)
# Probe 800 (0.75797 0.79634 0)
# Probe 801 (0.42601 0.04193 0)
# Probe 802 (0.73986 0.6776 0)
# Probe 803 (0.72544 0.66286 0)
# Probe 804 (0.74695 0.81443 0)
# Probe 805 (0.71811 0.43807 0)
# Probe 806 (0.56109 0.79716 0)
# Probe 807 (0.72485 0.83741 0)
# Probe 808 (0.74086 0.82354 0)
# Probe 809 (0.57803 0.65926 0)
# Probe 810 (0.71595 0.84332 0)
# Probe 811 (0.60277 0.84321 0)
# Probe 812 (0.58667 0.83054 0)
# Probe 813 (0.69655 0.85202 0)
# Probe 814 (0.54843 0.63484 0)
# Probe 815 (0.04247 0.67356 0)
# Probe 816 (0.35368 0.91561 0)
# Probe 817 (0.74799 0.46656 0)
# Probe 818 (0.71545 0.85489 0)
# Probe 819 (0.09014 0.62302 0)
# Probe 820 (0.56767 0.36869 0)
# Probe 821 (0.54974 0.40088 0)
# Probe 822 (0.51365 0.54317 0)
# Probe 823 (0.4874 0.41498 0)
# Probe 824 (0.61244 0.86362 0)
# Probe 825 (0.6319 0.28307 0)
# Probe 826 (0.62311 0.853 0)
# Probe 827 (0.51869 0.40709 0)
# Probe 828 (0.27325 0.27149 0)
# Probe 829 (0.26359 0.31372 0)
# Probe 830 (0.22363 0.33132 0)
# Probe 831 (0.65472 0.85877 0)
# Probe 832 (0.66165 0.87339 0)
# Probe 833 (0.67338 0.86892 0)
# Probe 834 (0.67605 0.85824 0)
# Probe 835 (0.12934 0.64555 0)
# Probe 836 (0.17332 0.64755 0)
# Probe 837 (0.70176 0.29719 0)
# Probe 838 (0.64402 0.85788 0)
# Probe 839 (0.36775 0.20423 0)
# Probe 840 (0.66101 0.16039 0)
# Probe 841 (0.04126 0.22524 0)
# Probe 842 (0.08312 0.20161 0)
# Probe 843 (0.08563 0.15052 0)
# Probe 844 (0.04299 0.12515 0)
# Probe 845 (0.08241 0.09957 0)
# Probe 846 (0.12977 0.12451 0)
# Probe 847 (0.59564 0.66248 0)
# Probe 848 (0.95767 0.17573 0)
# Probe 849 (0.12026 0.95387 0)
# Probe 850 (0.87497 0.04208 0)
# Probe 851 (0.17499 0.04329 0)
# Probe 852 (0.20231 0.08547 0)
# Probe 853 (0.70282 0.54696 0)
# Probe 854 (0.12781 0.1752 0)
# Probe 855 (0.32317 0.04565 0)
# Probe 856 (0.83652 0.34277 0)
# Probe 857 (0.59009 0.29081 0)
# Probe 858 (0.379 0.54018 0)
# Probe 859 (0.91935 0.67264 0)
# Probe 860 (0.44304 0.32934 0)
# Probe 861 (0.36023 0.0853 0)
# Probe 862 (0.82756 0.38246 0)
# Probe 863 (0.73225 0.59593 0)
# Probe 864 (0.24629 0.41826 0)
# Probe 865 (0.69227 0.19058 0)
# Probe 866 (0.18627 0.35359 0)
# Probe 867 (0.24992 0.36003 0)
# Probe 868 (0.86231 0.58324 0)
# Probe 869 (0.9123 0.53259 0)
# Probe 870 (0.68541 0.53075 0)
# Probe 871 (0.14844 0.51629 0)
# Probe 872 (0.24028 0.59856 0)
# Probe 873 (0.45128 0.45671 0)
# Probe 874 (0.20279 0.67994 0)
# Probe 875 (0.77738 0.73906 0)
# Probe 876 (0.59284 0.09098 0)
# Probe 877 (0.21966 0.16638 0)
# Probe 878 (0.18094 0.13034 0)
# Probe 879 (0.54701 0.71622 0)
# Probe 880 (0.95417 0.923 0)
# Probe 881 (0.2834 0.66713 0)
# Probe 882 (0.30538 0.29876 0)
# Probe 883 (0.38449 0.75501 0)
# Probe 884 (0.38011 0.41249 0)
# Probe 885 (0.89121 0.50199 0)
# Probe 886 (0.91395 0.14914 0)
# Probe 887 (0.26267 0.15449 0)
# Probe 888 (0.39506 0.23655 0)
# Probe 889 (0.64734 0.93882 0)
# Probe 890 (0.21799 0.95394 0)
# Probe 891 (0.48598 0.92012 0)
# Probe 892 (0.09287 0.423 0)
# Probe 893 (0.86203 0.37513 0)
# Probe 894 (0.19905 0.87677 0)
# Probe 895 (0.32784 0.49642 0)
# Probe 896 (0.14508 0.77455 0)
# Probe 897 (0.90637 0.24983 0)
# Probe 898 (0.35229 0.64924 0)
# Probe 899 (0.25657 0.77846 0)
# Probe 900 (0.6894 0.44282 0)
# Probe 901 (0.69544 0.64728 0)
# Probe 902 (0.18836 0.50601 0)
# Probe 903 (0.41017 0.19204 0)
# Probe 904 (0.19142 0.29925 0)
# Probe 905 (0.28279 0.41007 0)
# Probe 906 (0.68666 0.36185 0)
# Probe 907 (0.61609 0.64031 0)
# Probe 908 (0.63658 0.86825 0)
# Probe 909 (0.15557 0.08402 0)
# Probe 910 (0.03934 0.82272 0)
# Probe 911 (0.56863 0.82528 0)
# Probe 912 (0.79204 0.24129 0)
# Probe 913 (0.55584 0.82828 0)
# Probe 914 (0.03847 0.92835 0)
# Probe 915 (0.6411 0.3193 0)
# Probe 916 (0.56551 0.58206 0)
# Probe 917 (0.50976 0.43919 0)
# Probe 918 (0.96173 0.07592 0)
# Probe 919 (0.07895 0.04584 0)
# Probe 920 (0.48661 0.55184 0)
# Probe 921 (0.74937 0.61658 0)
# Probe 922 (0.68898 0.58424 0)
# Probe 923 (0.55041 0.70503 0)
# Probe 924 (0.52765 0.04049 0)
# Probe 925 (0.47343 0.21579 0)
# Probe 926 (0.23665 0.63298 0)
# Probe 927 (0.49634 0.16814 0)
# Probe 928 (0.41049 0.92293 0)
# Probe 929 (0.44426 0.72363 0)
# Probe 930 (0.56718 0.42516 0)
# Probe 931 (0.30447 0.92257 0)
# Probe 932 (0.91591 0.19582 0)
# Probe 933 (0.6211 0.04093 0)
# Probe 934 (0.62129 0.40976 0)
# Probe 935 (0.66607 0.53826 0)
# Probe 936 (0.64585 0.54825 0)
# Probe 937 (0.73878 0.49521 0)
# Probe 938 (0.59453 0.3862 0)
# Probe 939 (0.52651 0.58825 0)
# Probe 940 (0.4691 0.71826 0)
# Probe 941 (0.49094 0.66671 0)
# Probe 942 (0.78357 0.64878 0)
# Probe 943 (0.83764 0.59359 0)
# Probe 944 (0.57662 0.32915 0)
# Probe 945 (0.54956 0.20214 0)
# Probe 946 (0.88604 0.86949 0)
# Probe 947 (0.75488 0.5129 0)
# Probe 948 (0.68359 0.6362 0)
# Probe 949 (0.61456 0.56965 0)
# Probe 950 (0.62142 0.55168 0)
# Probe 951 (0.23016 0.12156 0)
# Probe 952 (0.10264 0.7876 0)
# Probe 953 (0.78579 0.5458 0)
# Probe 954 (0.79444 0.52177 0)
# Probe 955 (0.08253 0.46142 0)
# Probe 956 (0.33715 0.59786 0)
# Probe 957 (0.49688 0.63097 0)
# Probe 958 (0.45987 0.75641 0)
# Probe 959 (0.15809 0.47836 0)
# Probe 960 (0.92928 0.49834 0)
# Probe 961 (0.47858 0.70064 0)
# Probe 962 (0.85572 0.41065 0)
# Probe 963 (0.77574 0.03975 0)
# Probe 964 (0.96197 0.42004 0)
# Probe 965 (0.86629 0.72275 0)
# Probe 966 (0.76801 0.64177 0)
# Probe 967 (0.5434 0.76092 0)
# Probe 968 (0.52903 0.74779 0)
# Probe 969 (0.77276 0.71508 0)
# Probe 970 (0.72589 0.84861 0)
# Probe 971 (0.84942 0.89054 0)