# Probe 0 (0 0 0)
# Probe 1 (1 0 0)
# Probe 2 (1 1 0)
# Probe 3 (0 1 0)
# Probe 4 (0.67 0.29 0)
# Probe 5 (0.57 0.19 0)
# Probe 6 (0.47 0.29 0)
# Probe 7 (0.57 0.39 0)
# Probe 8 (0.05 0 0)
# Probe 9 (0.1 0 0)
# Probe 10 (0.15 0 0)
# Probe 11 (0.2 0 0)
# Probe 12 (0.25 0 0)
# Probe 13 (0.3 0 0)
# Probe 14 (0.35 0 0)
# Probe 15 (0.4 0 0)
# Probe 16 (0.45 0 0)
# Probe 17 (0.5 0 0)
# Probe 18 (0.55 0 0)
# Probe 19 (0.6 0 0)
# Probe 20 (0.65 0 0)
# Probe 21 (0.7 0 0)
# Probe 22 (0.75 0 0)
# Probe 23 (0.8 0 0)
# Probe 24 (0.85 0 0)
# Probe 25 (0.9 0 0)
# Probe 26 (0.95 0 0)
# Probe 27 (1 0.05 0)
# Probe 28 (1 0.1 0)
# Probe 29 (1 0.15 0)
# Probe 30 (1 0.2 0)
# Probe 31 (1 0.25 0)
# Probe 32 (1 0.3 0)
# Probe 33 (1 0.35 0)
# Probe 34 (1 0.4 0)
# Probe 35 (1 0.45 0)
# Probe 36 (1 0.5 0)
# Probe 37 (1 0.55 0)
# Probe 38 (1 0.6 0)
# Probe 39 (1 0.65 0)
# Probe 40 (1 0.7 0)
# Probe 41 (1 0.75 0)
# Probe 42 (1 0.8 0)
# Probe 43 (1 0.85 0)
# Probe 44 (1 0.9 0)
# Probe 45 (1 0.95 0)
# Probe 46 (0.95 1 0)
# Probe 47 (0.9 1 0)
# Probe 48 (0.85 1 0)
# Probe 49 (0.8 1 0)
# Probe 50 (0.75 1 0)
# Probe 51 (0.7 1 0)
# Probe 52 (0.65 1 0)
# Probe 53 (0.6 1 0)
# Probe 54 (0.55 1 0)
# Probe 55 (0.5 1 0)
# Probe 56 (0.45 1 0)
# Probe 57 (0.4 1 0)
# Probe 58 (0.35 1 0)
# Probe 59 (0.3 1 0)
# Probe 60 (0.25 1 0)
# Probe 61 (0.2 1 0)
# Probe 62 (0.15 1 0)
# Probe 63 (0.1 1 0)
# Probe 64 (0.05 1 0)
# Probe 65 (0 0.95 0)
# Probe 66 (0 0.9 0)
# Probe 67 (0 0.85 0)
# Probe 68 (0 0.8 0)
# Probe 69 (0 0.75 0)
# Probe 70 (0 0.7 0)
# Probe 71 (0 0.65 0)
# Probe 72 (0 0.6 0)
# Probe 73 (0 0.55 0)
# Probe 74 (0 0.5 0)
# Probe 75 (0 0.45 0)
# Probe 76 (0 0.4 0)
# Probe 77 (0 0.35 0)
# Probe 78 (0 0.3 0)
# Probe 79 (0 0.25 0)
# Probe 80 (0 0.2 0)
# Probe 81 (0 0.15 0)
# Probe 82 (0 0.1 0)
# Probe 83 (0 0.05 0)
# Probe 84 (0.66952 0.2802 0)
# Probe 85 (0.66808 0.27049 0)
# Probe 86 (0.66569 0.26097 0)
# Probe 87 (0.66239 0.25173 0)
# Probe 88 (0.65819 0.24286 0)
# Probe 89 (0.65315 0.23444 0)
# Probe 90 (0.6473 0.22656 0)
# Probe 91 (0.64071 0.21929 0)
# Probe 92 (0.63344 0.2127 0)
# Probe 93 (0.62556 0.20685 0)
# Probe 94 (0.61714 0.20181 0)
# Probe 95 (0.60827 0.19761 0)
# Probe 96 (0.59903 0.19431 0)
# Probe 97 (0.58951 0.19192 0)
# Probe 98 (0.5798 0.19048 0)
# Probe 99 (0.5602 0.19048 0)
# Probe 100 (0.55049 0.19192 0)
# Probe 101 (0.54097 0.19431 0)
# Probe 102 (0.53173 0.19761 0)
# Probe 103 (0.52286 0.20181 0)
# Probe 104 (0.51444 0.20685 0)
# Probe 105 (0.50656 0.2127 0)
# Probe 106 (0.49929 0.21929 0)
# Probe 107 (0.4927 0.22656 0)
# Probe 108 (0.48685 0.23444 0)
# Probe 109 (0.48181 0.24286 0)
# Probe 110 (0.47761 0.25173 0)
# Probe 111 (0.47431 0.26097 0)
# Probe 112 (0.47192 0.27049 0)
# Probe 113 (0.47048 0.2802 0)
# Probe 114 (0.47048 0.2998 0)
# Probe 115 (0.47192 0.30951 0)
# Probe 116 (0.47431 0.31903 0)
# Probe 117 (0.47761 0.32827 0)
# Probe 118 (0.48181 0.33714 0)
# Probe 119 (0.48685 0.34556 0)
# Probe 120 (0.4927 0.35344 0)
# Probe 121 (0.49929 0.36071 0)
# Probe 122 (0.50656 0.3673 0)
# Probe 123 (0.51444 0.37315 0)
# Probe 124 (0.52286 0.37819 0)
# Probe 125 (0.53173 0.38239 0)
# Probe 126 (0.54097 0.38569 0)
# Probe 127 (0.55049 0.38808 0)
# Probe 128 (0.5602 0.38952 0)
# Probe 129 (0.5798 0.38952 0)
# Probe 130 (0.58951 0.38808 0)
# Probe 131 (0.59903 0.38569 0)
# Probe 132 (0.60827 0.38239 0)
# Probe 133 (0.61714 0.37819 0)
# Probe 134 (0.62556 0.37315 0)
# Probe 135 (0.63344 0.3673 0)
# Probe 136 (0.64071 0.36071 0)
# Probe 137 (0.6473 0.35344 0)
# Probe 138 (0.65315 0.34556 0)
# Probe 139 (0.65819 0.33714 0)
# Probe 140 (0.66239 0.32827 0)
# Probe 141 (0.66569 0.31903 0)
# Probe 142 (0.66808 0.30951 0)
# Probe 143 (0.66952 0.2998 0)
# Probe 144 (0.37642 0.95746 0)
# Probe 145 (0.03651 0.62403 0)
# Probe 146 (0.67278 0.95821 0)
# Probe 147 (0.95891 0.62236 0)
# Probe 148 (0.04819 0.47209 0)
# Probe 149 (0.04947 0.31841 0)
# Probe 150 (0.28122 0.04558 0)
# Probe 151 (0.5213 0.9597 0)
# Probe 152 (0.95195 0.47307 0)
# Probe 153 (0.95987 0.22256 0)
# Probe 154 (0.52366 0.19203 0)
# Probe 155 (0.61634 0.19203 0)
# Probe 156 (0.22663 0.95638 0)
# Probe 157 (0.94908 0.76887 0)
# Probe 158 (0.55405 0.18248 0)
# Probe 159 (0.58597 0.18204 0)
# Probe 160 (0.77046 0.04243 0)
# Probe 161 (0.0416 0.77489 0)
# Probe 162 (0.03848 0.17285 0)
# Probe 163 (0.63472 0.20274 0)
# Probe 164 (0.41992 0.04031 0)
# Probe 165 (0.82535 0.95992 0)
# Probe 166 (0.67842 0.04533 0)
# Probe 167 (0.17252 0.04301 0)
# Probe 168 (0.9567 0.325 0)
# Probe 169 (0.52071 0.0418 0)
# Probe 170 (0.04115 0.87651 0)
# Probe 171 (0.87324 0.04445 0)
# Probe 172 (0.95833 0.87136 0)
# Probe 173 (0.96026 0.13074 0)
# Probe 174 (0.12417 0.95455 0)
# Probe 175 (0.04691 0.0747 0)
# Probe 176 (0.92485 0.95759 0)
# Probe 177 (0.48326 0.04232 0)
# Probe 178 (0.44982 0.0867 0)
# Probe 179 (0.49706 0.20953 0)
# Probe 180 (0.50597 0.07664 0)
# Probe 181 (0.53907 0.07957 0)
# Probe 182 (0.47338 0.10745 0)
# Probe 183 (0.52164 0.10912 0)
# Probe 184 (0.55035 0.10884 0)
# Probe 185 (0.56871 0.08403 0)
# Probe 186 (0.57877 0.11611 0)
# Probe 187 (0.53776 0.13149 0)
# Probe 188 (0.59825 0.09013 0)
# Probe 189 (0.60702 0.1179 0)
# Probe 190 (0.59304 0.13838 0)
# Probe 191 (0.61542 0.1449 0)
# Probe 192 (0.63214 0.12382 0)
# Probe 193 (0.63917 0.14662 0)
# Probe 194 (0.65596 0.12898 0)
# Probe 195 (0.66268 0.15243 0)
# Probe 196 (0.67972 0.13464 0)
# Probe 197 (0.68636 0.15836 0)
# Probe 198 (0.65692 0.22551 0)
# Probe 199 (0.70408 0.14028 0)
# Probe 200 (0.70986 0.16356 0)
# Probe 201 (0.72914 0.14645 0)
# Probe 202 (0.73326 0.17418 0)
# Probe 203 (0.67204 0.25349 0)
# Probe 204 (0.75951 0.14874 0)
# Probe 205 (0.76402 0.17989 0)
# Probe 206 (0.74416 0.20008 0)
# Probe 207 (0.76957 0.207 0)
# Probe 208 (0.74804 0.22727 0)
# Probe 209 (0.67825 0.28468 0)
# Probe 210 (0.7752 0.2332 0)
# Probe 211 (0.75774 0.25112 0)
# Probe 212 (0.78292 0.25819 0)
# Probe 213 (0.7646 0.27509 0)
# Probe 214 (0.78924 0.28324 0)
# Probe 215 (0.7679 0.30049 0)
# Probe 216 (0.67184 0.32642 0)
# Probe 217 (0.67871 0.3054 0)
# Probe 218 (0.79433 0.30855 0)
# Probe 219 (0.77639 0.32676 0)
# Probe 220 (0.80114 0.33425 0)
# Probe 221 (0.78299 0.35277 0)
# Probe 222 (0.80911 0.36028 0)
# Probe 223 (0.78927 0.37873 0)
# Probe 224 (0.65702 0.3548 0)
# Probe 225 (0.76454 0.37037 0)
# Probe 226 (0.76978 0.39587 0)
# Probe 227 (0.7947 0.40482 0)
# Probe 228 (0.77471 0.42215 0)
# Probe 229 (0.75049 0.41168 0)
# Probe 230 (0.7544 0.43799 0)
# Probe 231 (0.63443 0.37689 0)
# Probe 232 (0.77875 0.45067 0)
# Probe 233 (0.75774 0.46548 0)
# Probe 234 (0.73376 0.45464 0)
# Probe 235 (0.73712 0.48097 0)
# Probe 236 (0.71363 0.4712 0)
# Probe 237 (0.71657 0.49647 0)
# Probe 238 (0.69357 0.48703 0)
# Probe 239 (0.69664 0.51215 0)
# Probe 240 (0.6748 0.50248 0)
# Probe 241 (0.67722 0.52684 0)
# Probe 242 (0.65215 0.51401 0)
# Probe 243 (0.65873 0.54125 0)
# Probe 244 (0.63257 0.53219 0)
# Probe 245 (0.63886 0.55797 0)
# Probe 246 (0.61326 0.54858 0)
# Probe 247 (0.61643 0.5743 0)
# Probe 248 (0.59174 0.56425 0)
# Probe 249 (0.6452 0.58592 0)
# Probe 250 (0.59486 0.59243 0)
# Probe 251 (0.56945 0.58083 0)
# Probe 252 (0.56493 0.39807 0)
# Probe 253 (0.57255 0.60952 0)
# Probe 254 (0.54588 0.59787 0)
# Probe 255 (0.54936 0.62767 0)
# Probe 256 (0.52131 0.61555 0)
# Probe 257 (0.51901 0.58538 0)
# Probe 258 (0.49355 0.60318 0)
# Probe 259 (0.49093 0.57294 0)
# Probe 260 (0.46577 0.59078 0)
# Probe 261 (0.46256 0.56125 0)
# Probe 262 (0.43793 0.57893 0)
# Probe 263 (0.43478 0.54925 0)
# Probe 264 (0.5136 0.38298 0)
# Probe 265 (0.41025 0.56663 0)
# Probe 266 (0.40765 0.53667 0)
# Probe 267 (0.41542 0.5974 0)
# Probe 268 (0.57762 0.63923 0)
# Probe 269 (0.38248 0.55454 0)
# Probe 270 (0.37998 0.52418 0)
# Probe 271 (0.49583 0.63391 0)
# Probe 272 (0.59629 0.39491 0)
# Probe 273 (0.35447 0.54232 0)
# Probe 274 (0.35049 0.51009 0)
# Probe 275 (0.70154 0.5364 0)
# Probe 276 (0.37649 0.49439 0)
# Probe 277 (0.48945 0.36182 0)
# Probe 278 (0.34817 0.47942 0)
# Probe 279 (0.32449 0.52667 0)
# Probe 280 (0.33015 0.56138 0)
# Probe 281 (0.37192 0.46539 0)
# Probe 282 (0.3462 0.45313 0)
# Probe 283 (0.36842 0.43754 0)
# Probe 284 (0.34345 0.42626 0)
# Probe 285 (0.46799 0.32603 0)
# Probe 286 (0.32038 0.44149 0)
# Probe 287 (0.31721 0.41513 0)
# Probe 288 (0.34511 0.39842 0)
# Probe 289 (0.31646 0.3866 0)
# Probe 290 (0.46476 0.26354 0)
# Probe 291 (0.46175 0.29532 0)
# Probe 292 (0.33953 0.37166 0)
# Probe 293 (0.31439 0.35921 0)
# Probe 294 (0.33733 0.34429 0)
# Probe 295 (0.31255 0.3323 0)
# Probe 296 (0.33582 0.31693 0)
# Probe 297 (0.30995 0.30382 0)
# Probe 298 (0.33416 0.2887 0)
# Probe 299 (0.28963 0.40271 0)
# Probe 300 (0.2858 0.32137 0)
# Probe 301 (0.49024 0.54084 0)
# Probe 302 (0.28302 0.28942 0)
# Probe 303 (0.76046 0.49266 0)
# Probe 304 (0.39257 0.44908 0)
# Probe 305 (0.29865 0.54908 0)
# Probe 306 (0.30392 0.58311 0)
# Probe 307 (0.61012 0.52349 0)
# Probe 308 (0.53325 0.3921 0)
# Probe 309 (0.47679 0.34452 0)
# Probe 310 (0.61708 0.38836 0)
# Probe 311 (0.47169 0.24333 0)
# Probe 312 (0.48294 0.22541 0)
# Probe 313 (0.27084 0.56934 0)
# Probe 314 (0.27503 0.60457 0)
# Probe 315 (0.36037 0.35533 0)
# Probe 316 (0.25663 0.31036 0)
# Probe 317 (0.25384 0.27434 0)
# Probe 318 (0.67271 0.47804 0)
# Probe 319 (0.7105 0.4459 0)
# Probe 320 (0.26672 0.53325 0)
# Probe 321 (0.23834 0.55583 0)
# Probe 322 (0.23419 0.5183 0)
# Probe 323 (0.36234 0.30222 0)
# Probe 324 (0.35787 0.27488 0)
# Probe 325 (0.79162 0.18775 0)
# Probe 326 (0.30916 0.61859 0)
# Probe 327 (0.2796 0.64095 0)
# Probe 328 (0.31396 0.65523 0)
# Probe 329 (0.28337 0.67846 0)
# Probe 330 (0.32083 0.69345 0)
# Probe 331 (0.28812 0.71714 0)
# Probe 332 (0.32533 0.73247 0)
# Probe 333 (0.24623 0.66158 0)
# Probe 334 (0.29273 0.75703 0)
# Probe 335 (0.22468 0.29437 0)
# Probe 336 (0.22169 0.25844 0)
# Probe 337 (0.25239 0.23812 0)
# Probe 338 (0.2043 0.5417 0)
# Probe 339 (0.2004 0.5022 0)
# Probe 340 (0.33039 0.77229 0)
# Probe 341 (0.36263 0.74749 0)
# Probe 342 (0.81641 0.29042 0)
# Probe 343 (0.21907 0.22106 0)
# Probe 344 (0.22866 0.33156 0)
# Probe 345 (0.36816 0.78743 0)
# Probe 346 (0.4002 0.76239 0)
# Probe 347 (0.40594 0.80231 0)
# Probe 348 (0.43799 0.77736 0)
# Probe 349 (0.55314 0.65879 0)
# Probe 350 (0.58359 0.67073 0)
# Probe 351 (0.55728 0.69142 0)
# Probe 352 (0.58863 0.70405 0)
# Probe 353 (0.61543 0.68245 0)
# Probe 354 (0.6213 0.71559 0)
# Probe 355 (0.64783 0.69447 0)
# Probe 356 (0.65448 0.72858 0)
# Probe 357 (0.68416 0.70451 0)
# Probe 358 (0.68883 0.7433 0)
# Probe 359 (0.71915 0.71844 0)
# Probe 360 (0.59665 0.74021 0)
# Probe 361 (0.72465 0.75749 0)
# Probe 362 (0.75456 0.73275 0)
# Probe 363 (0.749 0.6933 0)
# Probe 364 (0.78392 0.70824 0)
# Probe 365 (0.77776 0.66811 0)
# Probe 366 (0.75993 0.77419 0)
# Probe 367 (0.69384 0.78768 0)
# Probe 368 (0.38134 0.28467 0)
# Probe 369 (0.37892 0.26112 0)
# Probe 370 (0.35638 0.24848 0)
# Probe 371 (0.38282 0.23471 0)
# Probe 372 (0.35617 0.22148 0)
# Probe 373 (0.38092 0.20662 0)
# Probe 374 (0.35488 0.19308 0)
# Probe 375 (0.25498 0.74125 0)
# Probe 376 (0.75458 0.32227 0)
# Probe 377 (0.25091 0.20115 0)
# Probe 378 (0.1875 0.24195 0)
# Probe 379 (0.1844 0.20276 0)
# Probe 380 (0.25975 0.78276 0)
# Probe 381 (0.37969 0.17864 0)
# Probe 382 (0.35355 0.16288 0)
# Probe 383 (0.40482 0.19208 0)
# Probe 384 (0.22014 0.76606 0)
# Probe 385 (0.33683 0.81097 0)
# Probe 386 (0.43288 0.52027 0)
# Probe 387 (0.79951 0.23586 0)
# Probe 388 (0.19483 0.31497 0)
# Probe 389 (0.19762 0.35122 0)
# Probe 390 (0.44372 0.81753 0)
# Probe 391 (0.83035 0.33843 0)
# Probe 392 (0.83772 0.36923 0)
# Probe 393 (0.38894 0.42377 0)
# Probe 394 (0.41046 0.43277 0)
# Probe 395 (0.40823 0.41117 0)
# Probe 396 (0.42722 0.41883 0)
# Probe 397 (0.42537 0.39962 0)
# Probe 398 (0.44319 0.40668 0)
# Probe 399 (0.44537 0.42542 0)
# Probe 400 (0.46007 0.41414 0)
# Probe 401 (0.46261 0.43164 0)
# Probe 402 (0.47616 0.42054 0)
# Probe 403 (0.47909 0.43751 0)
# Probe 404 (0.4922 0.42682 0)
# Probe 405 (0.49521 0.44357 0)
# Probe 406 (0.50792 0.43261 0)
# Probe 407 (0.51093 0.4497 0)
# Probe 408 (0.52467 0.43608 0)
# Probe 409 (0.52698 0.45553 0)
# Probe 410 (0.54182 0.44364 0)
# Probe 411 (0.54387 0.46209 0)
# Probe 412 (0.55559 0.45114 0)
# Probe 413 (0.56704 0.54919 0)
# Probe 414 (0.49841 0.46084 0)
# Probe 415 (0.44866 0.44327 0)
# Probe 416 (0.44077 0.389 0)
# Probe 417 (0.42424 0.38143 0)
# Probe 418 (0.52921 0.47395 0)
# Probe 419 (0.54798 0.48071 0)
# Probe 420 (0.74252 0.65506 0)
# Probe 421 (0.77135 0.62992 0)
# Probe 422 (0.80681 0.64262 0)
# Probe 423 (0.79979 0.60486 0)
# Probe 424 (0.39979 0.27285 0)
# Probe 425 (0.40169 0.29311 0)
# Probe 426 (0.39497 0.72337 0)
# Probe 427 (0.16882 0.52559 0)
# Probe 428 (0.17332 0.56555 0)
# Probe 429 (0.16501 0.48669 0)
# Probe 430 (0.72557 0.2169 0)
# Probe 431 (0.74138 0.26887 0)
# Probe 432 (0.43869 0.37156 0)
# Probe 433 (0.42396 0.36396 0)
# Probe 434 (0.40351 0.16627 0)
# Probe 435 (0.42726 0.17991 0)
# Probe 436 (0.47597 0.79235 0)
# Probe 437 (0.22564 0.80956 0)
# Probe 438 (0.42788 0.20284 0)
# Probe 439 (0.47422 0.40305 0)
# Probe 440 (0.69363 0.17878 0)
# Probe 441 (0.48175 0.83284 0)
# Probe 442 (0.47024 0.75376 0)
# Probe 443 (0.18498 0.79306 0)
# Probe 444 (0.17974 0.74757 0)
# Probe 445 (0.19697 0.46348 0)
# Probe 446 (0.16161 0.44783 0)
# Probe 447 (0.13615 0.54895 0)
# Probe 448 (0.53133 0.49372 0)
# Probe 449 (0.43722 0.35455 0)
# Probe 450 (0.42339 0.3469 0)
# Probe 451 (0.44748 0.19239 0)
# Probe 452 (0.83507 0.61751 0)
# Probe 453 (0.82727 0.58061 0)
# Probe 454 (0.84355 0.6557 0)
# Probe 455 (0.16372 0.33592 0)
# Probe 456 (0.51425 0.80743 0)
# Probe 457 (0.41797 0.28228 0)
# Probe 458 (0.417 0.26317 0)
# Probe 459 (0.18901 0.83619 0)
# Probe 460 (0.15072 0.22466 0)
# Probe 461 (0.14775 0.18359 0)
# Probe 462 (0.18302 0.16089 0)
# Probe 463 (0.14078 0.58945 0)
# Probe 464 (0.44915 0.85865 0)
# Probe 465 (0.72099 0.11956 0)
# Probe 466 (0.73679 0.61816 0)
# Probe 467 (0.43605 0.33766 0)
# Probe 468 (0.53762 0.43041 0)
# Probe 469 (0.44802 0.16972 0)
# Probe 470 (0.52008 0.84831 0)
# Probe 471 (0.55288 0.82248 0)
# Probe 472 (0.55888 0.86395 0)
# Probe 473 (0.59216 0.83773 0)
# Probe 474 (0.14499 0.14057 0)
# Probe 475 (0.86131 0.34779 0)
# Probe 476 (0.86832 0.37894 0)
# Probe 477 (0.46772 0.18462 0)
# Probe 478 (0.40955 0.37363 0)
# Probe 479 (0.5043 0.41614 0)
# Probe 480 (0.79306 0.56857 0)
# Probe 481 (0.81958 0.54379 0)
# Probe 482 (0.85455 0.55576 0)
# Probe 483 (0.84635 0.51825 0)
# Probe 484 (0.26343 0.49562 0)
# Probe 485 (0.14787 0.82014 0)
# Probe 486 (0.45396 0.37888 0)
# Probe 487 (0.33668 0.23546 0)
# Probe 488 (0.70945 0.64172 0)
# Probe 489 (0.59831 0.87993 0)
# Probe 490 (0.62993 0.85415 0)
# Probe 491 (0.23281 0.85122 0)
# Probe 492 (0.64189 0.65998 0)
# Probe 493 (0.55184 0.5024 0)
# Probe 494 (0.56763 0.48764 0)
# Probe 495 (0.53532 0.51656 0)
# Probe 496 (0.4476 0.21202 0)
# Probe 497 (0.88246 0.53015 0)
# Probe 498 (0.87345 0.49301 0)
# Probe 499 (0.34598 0.63291 0)
# Probe 500 (0.32855 0.17919 0)
# Probe 501 (0.32625 0.1464 0)
# Probe 502 (0.35454 0.12934 0)
# Probe 503 (0.41948 0.30008 0)
# Probe 504 (0.40364 0.31307 0)
# Probe 505 (0.46845 0.16113 0)
# Probe 506 (0.48547 0.17262 0)
# Probe 507 (0.44871 0.1419 0)
# Probe 508 (0.1788 0.6058 0)
# Probe 509 (0.14585 0.63063 0)
# Probe 510 (0.70421 0.60742 0)
# Probe 511 (0.48674 0.15215 0)
# Probe 512 (0.50262 0.16368 0)
# Probe 513 (0.43359 0.27208 0)
# Probe 514 (0.43354 0.25436 0)
# Probe 515 (0.41797 0.24502 0)
# Probe 516 (0.41692 0.45783 0)
# Probe 517 (0.51511 0.5069 0)
# Probe 518 (0.22953 0.36846 0)
# Probe 519 (0.64503 0.16737 0)
# Probe 520 (0.38869 0.40227 0)
# Probe 521 (0.3242 0.11177 0)
# Probe 522 (0.2964 0.13088 0)
# Probe 523 (0.35571 0.09312 0)
# Probe 524 (0.72612 0.58557 0)
# Probe 525 (0.83808 0.4819 0)
# Probe 526 (0.86391 0.458 0)
# Probe 527 (0.45197 0.34462 0)
# Probe 528 (0.38829 0.11657 0)
# Probe 529 (0.88872 0.5707 0)
# Probe 530 (0.67207 0.11409 0)
# Probe 531 (0.57096 0.50836 0)
# Probe 532 (0.58654 0.49422 0)
# Probe 533 (0.58335 0.4742 0)
# Probe 534 (0.6018 0.48048 0)
# Probe 535 (0.59807 0.46141 0)
# Probe 536 (0.61606 0.46761 0)
# Probe 537 (0.61188 0.44934 0)
# Probe 538 (0.59544 0.44374 0)
# Probe 539 (0.60852 0.43259 0)
# Probe 540 (0.62407 0.43797 0)
# Probe 541 (0.59417 0.42514 0)
# Probe 542 (0.62076 0.42195 0)
# Probe 543 (0.63615 0.42627 0)
# Probe 544 (0.63955 0.44233 0)
# Probe 545 (0.65176 0.43091 0)
# Probe 546 (0.64798 0.41478 0)
# Probe 547 (0.66312 0.41936 0)
# Probe 548 (0.65924 0.40366 0)
# Probe 549 (0.67428 0.40897 0)
# Probe 550 (0.67065 0.39249 0)
# Probe 551 (0.68625 0.39772 0)
# Probe 552 (0.68229 0.38052 0)
# Probe 553 (0.69819 0.385 0)
# Probe 554 (0.69412 0.36855 0)
# Probe 555 (0.71043 0.37307 0)
# Probe 556 (0.7058 0.35671 0)
# Probe 557 (0.7022 0.4026 0)
# Probe 558 (0.66604 0.43737 0)
# Probe 559 (0.68982 0.35319 0)
# Probe 560 (0.70078 0.34118 0)
# Probe 561 (0.71632 0.34416 0)
# Probe 562 (0.71121 0.32817 0)
# Probe 563 (0.62054 0.48659 0)
# Probe 564 (0.62286 0.81531 0)
# Probe 565 (0.12873 0.46982 0)
# Probe 566 (0.12119 0.42531 0)
# Probe 567 (0.15193 0.86457 0)
# Probe 568 (0.19386 0.42585 0)
# Probe 569 (0.22768 0.44124 0)
# Probe 570 (0.84417 0.39777 0)
# Probe 571 (0.52511 0.67907 0)
# Probe 572 (0.53029 0.71231 0)
# Probe 573 (0.49361 0.69713 0)
# Probe 574 (0.64463 0.40001 0)
# Probe 575 (0.10277 0.57278 0)
# Probe 576 (0.66663 0.37754 0)
# Probe 577 (0.87117 0.6301 0)
# Probe 578 (0.88179 0.66913 0)
# Probe 579 (0.85114 0.69726 0)
# Probe 580 (0.88921 0.71171 0)
# Probe 581 (0.85779 0.74094 0)
# Probe 582 (0.69618 0.3262 0)
# Probe 583 (0.70621 0.31339 0)
# Probe 584 (0.16041 0.29879 0)
# Probe 585 (0.12764 0.32005 0)
# Probe 586 (0.59818 0.15425 0)
# Probe 587 (0.57955 0.1568 0)
# Probe 588 (0.9207 0.54354 0)
# Probe 589 (0.58093 0.43695 0)
# Probe 590 (0.57923 0.42195 0)
# Probe 591 (0.89372 0.35571 0)
# Probe 592 (0.88304 0.31919 0)
# Probe 593 (0.90288 0.39394 0)
# Probe 594 (0.09844 0.53212 0)
# Probe 595 (0.11324 0.20719 0)
# Probe 596 (0.11712 0.24766 0)
# Probe 597 (0.50052 0.18273 0)
# Probe 598 (0.13166 0.36043 0)
# Probe 599 (0.63371 0.47119 0)
# Probe 600 (0.54395 0.78263 0)
# Probe 601 (0.18289 0.64729 0)
# Probe 602 (0.15064 0.67275 0)
# Probe 603 (0.11223 0.65638 0)
# Probe 604 (0.11632 0.69997 0)
# Probe 605 (0.18273 0.11825 0)
# Probe 606 (0.21796 0.13922 0)
# Probe 607 (0.22029 0.09504 0)
# Probe 608 (0.44883 0.3296 0)
# Probe 609 (0.07617 0.23426 0)
# Probe 610 (0.4358 0.32279 0)
# Probe 611 (0.44813 0.31508 0)
# Probe 612 (0.72177 0.31564 0)
# Probe 613 (0.71638 0.29999 0)
# Probe 614 (0.69908 0.29747 0)
# Probe 615 (0.70978 0.28505 0)
# Probe 616 (0.56766 0.43083 0)
# Probe 617 (0.07575 0.68585 0)
# Probe 618 (0.92072 0.69011 0)
# Probe 619 (0.56608 0.41591 0)
# Probe 620 (0.58855 0.414 0)
# Probe 621 (0.63871 0.89476 0)
# Probe 622 (0.67442 0.86782 0)
# Probe 623 (0.60634 0.92233 0)
# Probe 624 (0.78723 0.5342 0)
# Probe 625 (0.5585 0.13341 0)
# Probe 626 (0.5458 0.14891 0)
# Probe 627 (0.82897 0.44737 0)
# Probe 628 (0.28206 0.21862 0)
# Probe 629 (0.14588 0.08812 0)
# Probe 630 (0.10703 0.11981 0)
# Probe 631 (0.50362 0.14428 0)
# Probe 632 (0.52682 0.88891 0)
# Probe 633 (0.5158 0.17307 0)
# Probe 634 (0.11104 0.84709 0)
# Probe 635 (0.67907 0.62661 0)
# Probe 636 (0.40723 0.21766 0)
# Probe 637 (0.58861 0.06006 0)
# Probe 638 (0.61902 0.06657 0)
# Probe 639 (0.19053 0.68923 0)
# Probe 640 (0.73314 0.30226 0)
# Probe 641 (0.21794 0.6254 0)
# Probe 642 (0.51644 0.52927 0)
# Probe 643 (0.71918 0.19712 0)
# Probe 644 (0.70519 0.21332 0)
# Probe 645 (0.7098 0.23077 0)
# Probe 646 (0.69226 0.22611 0)
# Probe 647 (0.69398 0.24381 0)
# Probe 648 (0.71375 0.24709 0)
# Probe 649 (0.68683 0.20988 0)
# Probe 650 (0.69993 0.25891 0)
# Probe 651 (0.62568 0.16306 0)
# Probe 652 (0.6752 0.22216 0)
# Probe 653 (0.67019 0.20641 0)
# Probe 654 (0.68023 0.2359 0)
# Probe 655 (0.90295 0.46605 0)
# Probe 656 (0.27828 0.18339 0)
# Probe 657 (0.43397 0.23774 0)
# Probe 658 (0.44725 0.24764 0)
# Probe 659 (0.1126 0.79797 0)
# Probe 660 (0.32198 0.07214 0)
# Probe 661 (0.63273 0.17863 0)
# Probe 662 (0.64748 0.18382 0)
# Probe 663 (0.66154 0.17283 0)
# Probe 664 (0.76191 0.55482 0)
# Probe 665 (0.67594 0.66359 0)
# Probe 666 (0.44601 0.2626 0)
# Probe 667 (0.44952 0.27704 0)
# Probe 668 (0.43589 0.28907 0)
# Probe 669 (0.06553 0.55602 0)
# Probe 670 (0.48515 0.19092 0)
# Probe 671 (0.46343 0.20442 0)
# Probe 672 (0.46291 0.22012 0)
# Probe 673 (0.6948 0.57672 0)
# Probe 674 (0.07933 0.27653 0)
# Probe 675 (0.71647 0.26601 0)
# Probe 676 (0.11779 0.89784 0)
# Probe 677 (0.89865 0.75557 0)
# Probe 678 (0.86523 0.78474 0)
# Probe 679 (0.82523 0.76954 0)
# Probe 680 (0.83102 0.8146 0)
# Probe 681 (0.8733 0.82994 0)
# Probe 682 (0.83851 0.86099 0)
# Probe 683 (0.7951 0.84406 0)
# Probe 684 (0.88216 0.87585 0)
# Probe 685 (0.8013 0.88859 0)
# Probe 686 (0.75835 0.87224 0)
# Probe 687 (0.76455 0.91636 0)
# Probe 688 (0.72161 0.90126 0)
# Probe 689 (0.75094 0.82653 0)
# Probe 690 (0.65409 0.38767 0)
# Probe 691 (0.65267 0.37402 0)
# Probe 692 (0.0988 0.0755 0)
# Probe 693 (0.45203 0.36227 0)
# Probe 694 (0.4657 0.3692 0)
# Probe 695 (0.46743 0.38358 0)
# Probe 696 (0.47742 0.37647 0)
# Probe 697 (0.46378 0.35513 0)
# Probe 698 (0.46569 0.3433 0)
# Probe 699 (0.57968 0.40798 0)
# Probe 700 (0.48967 0.41052 0)
# Probe 701 (0.5023 0.40162 0)
# Probe 702 (0.51572 0.40671 0)
# Probe 703 (0.48907 0.39606 0)
# Probe 704 (0.51859 0.4204 0)
# Probe 705 (0.52821 0.41015 0)
# Probe 706 (0.50084 0.38789 0)
# Probe 707 (0.54049 0.54129 0)
# Probe 708 (0.72529 0.04109 0)
# Probe 709 (0.74924 0.07715 0)
# Probe 710 (0.78168 0.07853 0)
# Probe 711 (0.71283 0.08391 0)
# Probe 712 (0.81553 0.05136 0)
# Probe 713 (0.85074 0.09031 0)
# Probe 714 (0.90009 0.08451 0)
# Probe 715 (0.87571 0.12542 0)
# Probe 716 (0.83452 0.13147 0)
# Probe 717 (0.8574 0.16317 0)
# Probe 718 (0.89571 0.16095 0)
# Probe 719 (0.87703 0.1965 0)
# Probe 720 (0.84238 0.19967 0)
# Probe 721 (0.86025 0.23041 0)
# Probe 722 (0.89535 0.23086 0)
# Probe 723 (0.87508 0.2612 0)
# Probe 724 (0.91127 0.26436 0)
# Probe 725 (0.69561 0.28204 0)
# Probe 726 (0.60731 0.41674 0)
# Probe 727 (0.61839 0.40746 0)
# Probe 728 (0.16117 0.91086 0)
# Probe 729 (0.07672 0.9224 0)
# Probe 730 (0.68991 0.4602 0)
# Probe 731 (0.39386 0.07268 0)
# Probe 732 (0.72329 0.95007 0)
# Probe 733 (0.08018 0.72836 0)
# Probe 734 (0.12317 0.74588 0)
# Probe 735 (0.76129 0.58971 0)
# Probe 736 (0.35968 0.3299 0)
# Probe 737 (0.38031 0.34225 0)
# Probe 738 (0.38184 0.36325 0)
# Probe 739 (0.36503 0.37782 0)
# Probe 740 (0.67655 0.36428 0)
# Probe 741 (0.67515 0.3471 0)
# Probe 742 (0.68696 0.3377 0)
# Probe 743 (0.75548 0.34572 0)
# Probe 744 (0.74115 0.36438 0)
# Probe 745 (0.74693 0.38723 0)
# Probe 746 (0.73067 0.40041 0)
# Probe 747 (0.72886 0.42635 0)
# Probe 748 (0.39672 0.34979 0)
# Probe 749 (0.64052 0.48985 0)
# Probe 750 (0.63301 0.41106 0)
# Probe 751 (0.63014 0.39586 0)
# Probe 752 (0.0907 0.34474 0)
# Probe 753 (0.09938 0.38619 0)
# Probe 754 (0.76636 0.11312 0)
# Probe 755 (0.67407 0.59602 0)
# Probe 756 (0.46011 0.5326 0)
# Probe 757 (0.45565 0.50526 0)
# Probe 758 (0.43324 0.49361 0)
# Probe 759 (0.45342 0.48118 0)
# Probe 760 (0.47443 0.49066 0)
# Probe 761 (0.46939 0.46879 0)
# Probe 762 (0.40679 0.5042 0)
# Probe 763 (0.47661 0.36142 0)
# Probe 764 (0.55581 0.42539 0)
# Probe 765 (0.55274 0.41455 0)
# Probe 766 (0.83962 0.2615 0)
# Probe 767 (0.47926 0.51428 0)
# Probe 768 (0.38178 0.3204 0)
# Probe 769 (0.09081 0.45319 0)
# Probe 770 (0.51944 0.1573 0)
# Probe 771 (0.53345 0.16641 0)
# Probe 772 (0.69092 0.31118 0)
# Probe 773 (0.74077 0.33333 0)
# Probe 774 (0.80447 0.47149 0)
# Probe 775 (0.81337 0.50947 0)
# Probe 776 (0.96007 0.57258 0)
# Probe 777 (0.93026 0.36383 0)
# Probe 778 (0.93975 0.40204 0)
# Probe 779 (0.75445 0.52463 0)
# Probe 780 (0.22712 0.40541 0)
# Probe 781 (0.2591 0.42132 0)
# Probe 782 (0.26611 0.45706 0)
# Probe 783 (0.23214 0.47808 0)
# Probe 784 (0.29507 0.47814 0)
# Probe 785 (0.29574 0.50845 0)
# Probe 786 (0.50451 0.37659 0)
# Probe 787 (0.49575 0.3784 0)
# Probe 788 (0.55461 0.39718 0)
# Probe 789 (0.58554 0.3971 0)
# Probe 790 (0.70601 0.42347 0)
# Probe 791 (0.28742 0.43571 0)
# Probe 792 (0.2605 0.38725 0)
# Probe 793 (0.26295 0.34832 0)
# Probe 794 (0.46525 0.31618 0)
# Probe 795 (0.46175 0.28468 0)
# Probe 796 (0.61715 0.1788 0)
# Probe 797 (0.73563 0.24707 0)
# Probe 798 (0.39705 0.4753 0)
# Probe 799 (0.45866 0.39743 0)
# Probe 800 (0.73112 0.54482 0)
# Probe 801 (0.66309 0.34613 0)
# Probe 802 (0.65025 0.36299 0)
# Probe 803 (0.69186 0.43629 0)
# Probe 804 (0.46317 0.30581 0)
# Probe 805 (0.4515 0.30296 0)
# Probe 806 (0.54367 0.39485 0)
# Probe 807 (0.52349 0.38802 0)
# Probe 808 (0.51692 0.55649 0)
# Probe 809 (0.22329 0.04846 0)
# Probe 810 (0.62572 0.38382 0)
# Probe 811 (0.60651 0.39204 0)
# Probe 812 (0.60502 0.40336 0)
# Probe 813 (0.85714 0.29252 0)
# Probe 814 (0.46247 0.27377 0)
# Probe 815 (0.58224 0.45465 0)
# Probe 816 (0.66792 0.33655 0)
# Probe 817 (0.43202 0.73846 0)
# Probe 818 (0.42585 0.70006 0)
# Probe 819 (0.39066 0.68548 0)
# Probe 820 (0.42079 0.6637 0)
# Probe 821 (0.45892 0.67549 0)
# Probe 822 (0.44702 0.6404 0)
# Probe 823 (0.38673 0.6442 0)
# Probe 824 (0.35514 0.66988 0)
# Probe 825 (0.36974 0.60746 0)
# Probe 826 (0.33802 0.59586 0)
# Probe 827 (0.62635 0.09705 0)
# Probe 828 (0.64974 0.07385 0)
# Probe 829 (0.643 0.20945 0)
# Probe 830 (0.50711 0.76924 0)
# Probe 831 (0.96112 0.17615 0)
# Probe 832 (0.67765 0.27428 0)
# Probe 833 (0.67594 0.26371 0)
# Probe 834 (0.68503 0.25569 0)
# Probe 835 (0.66956 0.24257 0)
# Probe 836 (0.50544 0.20295 0)
# Probe 837 (0.65039 0.21713 0)
# Probe 838 (0.6557 0.20631 0)
# Probe 839 (0.66296 0.23428 0)
# Probe 840 (0.43512 0.30574 0)
# Probe 841 (0.51428 0.19704 0)
# Probe 842 (0.42328 0.3312 0)
# Probe 843 (0.60681 0.18739 0)
# Probe 844 (0.62569 0.19712 0)
# Probe 845 (0.67513 0.31633 0)
# Probe 846 (0.67901 0.29543 0)
# Probe 847 (0.36768 0.41403 0)
# Probe 848 (0.5335 0.188 0)
# Probe 849 (0.59635 0.18438 0)
# Probe 850 (0.59192 0.17583 0)
# Probe 851 (0.57522 0.18104 0)
# Probe 852 (0.56454 0.18134 0)
# Probe 853 (0.55828 0.17236 0)
# Probe 854 (0.9519 0.27057 0)
# Probe 855 (0.54367 0.18487 0)
# Probe 856 (0.07116 0.82339 0)
# Probe 857 (0.58398 0.79303 0)
# Probe 858 (0.61848 0.77216 0)
# Probe 859 (0.65056 0.61421 0)
# Probe 860 (0.05163 0.37731 0)
# Probe 861 (0.04431 0.42712 0)
# Probe 862 (0.28068 0.25506 0)
# Probe 863 (0.81779 0.16904 0)
# Probe 864 (0.79577 0.13707 0)
# Probe 865 (0.62233 0.60308 0)
# Probe 866 (0.59149 0.53743 0)
# Probe 867 (0.46351 0.71546 0)
# Probe 868 (0.47467 0.95817 0)
# Probe 869 (0.42628 0.95724 0)
# Probe 870 (0.4007 0.91688 0)
# Probe 871 (0.35387 0.91585 0)
# Probe 872 (0.3766 0.8717 0)
# Probe 873 (0.32938 0.8758 0)
# Probe 874 (0.3084 0.91307 0)
# Probe 875 (0.2775 0.8718 0)
# Probe 876 (0.25833 0.91441 0)
# Probe 877 (0.45 0.90913 0)
# Probe 878 (0.46774 0.25334 0)
# Probe 879 (0.47704 0.23428 0)
# Probe 880 (0.51349 0.39433 0)
# Probe 881 (0.66169 0.36491 0)
# Probe 882 (0.67028 0.45689 0)
# Probe 883 (0.45167 0.29032 0)
# Probe 884 (0.60758 0.65067 0)
# Probe 885 (0.71598 0.85511 0)
# Probe 886 (0.68432 0.8272 0)
# Probe 887 (0.89022 0.42938 0)
# Probe 888 (0.42065 0.09828 0)
# Probe 889 (0.42187 0.12816 0)
# Probe 890 (0.44629 0.11416 0)
# Probe 891 (0.48944 0.21698 0)
# Probe 892 (0.47685 0.21432 0)
# Probe 893 (0.91966 0.19701 0)
# Probe 894 (0.92468 0.04206 0)
# Probe 895 (0.04151 0.12496 0)
# Probe 896 (0.35826 0.70869 0)
# Probe 897 (0.19534 0.38821 0)
# Probe 898 (0.32789 0.95721 0)
# Probe 899 (0.95539 0.82273 0)
# Probe 900 (0.95888 0.71709 0)
# Probe 901 (0.87503 0.95829 0)
# Probe 902 (0.84635 0.91261 0)
# Probe 903 (0.5643 0.46507 0)
# Probe 904 (0.54313 0.56851 0)
# Probe 905 (0.71369 0.67933 0)
# Probe 906 (0.16047 0.40854 0)
# Probe 907 (0.45012 0.23085 0)
# Probe 908 (0.90961 0.80132 0)
# Probe 909 (0.21596 0.72354 0)
# Probe 910 (0.27862 0.95688 0)
# Probe 911 (0.21039 0.90995 0)
# Probe 912 (0.57255 0.95294 0)
# Probe 913 (0.2094 0.58072 0)
# Probe 914 (0.26662 0.82615 0)
# Probe 915 (0.72203 0.36095 0)
# Probe 916 (0.28831 0.37249 0)
# Probe 917 (0.52488 0.39889 0)
# Probe 918 (0.48881 0.66586 0)
# Probe 919 (0.66553 0.56768 0)
# Probe 920 (0.39728 0.33156 0)
# Probe 921 (0.25829 0.12184 0)
# Probe 922 (0.67938 0.9141 0)
# Probe 923 (0.9209 0.60011 0)
# Probe 924 (0.91515 0.64034 0)
# Probe 925 (0.68901 0.26964 0)
# Probe 926 (0.64112 0.38953 0)
# Probe 927 (0.65712 0.76291 0)
# Probe 928 (0.24995 0.1638 0)
# Probe 929 (0.80018 0.43128 0)
# Probe 930 (0.37996 0.14915 0)
# Probe 931 (0.41831 0.62986 0)
# Probe 932 (0.72731 0.28497 0)
# Probe 933 (0.74671 0.28763 0)
# Probe 934 (0.10863 0.61413 0)
# Probe 935 (0.4859 0.12794 0)
# Probe 936 (0.6626 0.19128 0)
# Probe 937 (0.3742 0.82651 0)
# Probe 938 (0.21717 0.18304 0)
# Probe 939 (0.64652 0.19757 0)
# Probe 940 (0.39796 0.25132 0)
# Probe 941 (0.48703 0.87615 0)
# Probe 942 (0.17636 0.95768 0)
# Probe 943 (0.95505 0.07943 0)
# Probe 944 (0.29849 0.79773 0)
# Probe 945 (0.95801 0.52258 0)
# Probe 946 (0.32323 0.4947 0)
# Probe 947 (0.51433 0.48534 0)
# Probe 948 (0.62506 0.50761 0)
# Probe 949 (0.41175 0.84222 0)
# Probe 950 (0.25267 0.70145 0)
# Probe 951 (0.56635 0.90527 0)
# Probe 952 (0.68298 0.32535 0)
# Probe 953 (0.55698 0.52361 0)
# Probe 954 (0.56184 0.72454 0)
# Probe 955 (0.66247 0.21718 0)
# Probe 956 (0.13224 0.50915 0)
# Probe 957 (0.64237 0.37009 0)
# Probe 958 (0.57532 0.39825 0)
# Probe 959 (0.11111 0.16466 0)
# Probe 960 (0.44229 0.60958 0)
# Probe 961 (0.52453 0.64614 0)
# Probe 962 (0.19139 0.27852 0)
# Probe 963 (0.35547 0.05176 0)
# Probe 964 (0.91492 0.50473 0)
# Probe 965 (0.81536 0.38718 0)
# Probe 966 (0.95225 0.92072 0)
# Probe 967 (0.59054 0.51523 0)
# Probe 968 (0.62827 0.45526 0)
# Probe 969 (0.60577 0.50127 0)
# Probe 970 (0.49627 0.49545 0)