# Probe 0 (0 0 0)
# Probe 1 (1 0 0)
# Probe 2 (1 1 0)
# Probe 3 (0 1 0)
# Probe 4 (0.51 0.74 0)
# Probe 5 (0.41 0.64 0)
# Probe 6 (0.31 0.74 0)
# Probe 7 (0.41 0.84 0)
# Probe 8 (0.05 0 0)
# Probe 9 (0.1 0 0)
# Probe 10 (0.15 0 0)
# Probe 11 (0.2 0 0)
# Probe 12 (0.25 0 0)
# Probe 13 (0.3 0 0)
# Probe 14 (0.35 0 0)
# Probe 15 (0.4 0 0)
# Probe 16 (0.45 0 0)
# Probe 17 (0.5 0 0)
# Probe 18 (0.55 0 0)
# Probe 19 (0.6 0 0)
# Probe 20 (0.65 0 0)
# Probe 21 (0.7 0 0)
# Probe 22 (0.75 0 0)
# Probe 23 (0.8 0 0)
# Probe 24 (0.85 0 0)
# Probe 25 (0.9 0 0)
# Probe 26 (0.95 0 0)
# Probe 27 (1 0.05 0)
# Probe 28 (1 0.1 0)
# Probe 29 (1 0.15 0)
# Probe 30 (1 0.2 0)
# Probe 31 (1 0.25 0)
# Probe 32 (1 0.3 0)
# Probe 33 (1 0.35 0)
# Probe 34 (1 0.4 0)
# Probe 35 (1 0.45 0)
# Probe 36 (1 0.5 0)
# Probe 37 (1 0.55 0)
# Probe 38 (1 0.6 0)
# Probe 39 (1 0.65 0)
# Probe 40 (1 0.7 0)
# Probe 41 (1 0.75 0)
# Probe 42 (1 0.8 0)
# Probe 43 (1 0.85 0)
# Probe 44 (1 0.9 0)
# Probe 45 (1 0.95 0)
# Probe 46 (0.95 1 0)
# Probe 47 (0.9 1 0)
# Probe 48 (0.85 1 0)
# Probe 49 (0.8 1 0)
# Probe 50 (0.75 1 0)
# Probe 51 (0.7 1 0)
# Probe 52 (0.65 1 0)
# Probe 53 (0.6 1 0)
# Probe 54 (0.55 1 0)
# Probe 55 (0.5 1 0)
# Probe 56 (0.45 1 0)
# Probe 57 (0.4 1 0)
# Probe 58 (0.35 1 0)
# Probe 59 (0.3 1 0)
# Probe 60 (0.25 1 0)
# Probe 61 (0.2 1 0)
# Probe 62 (0.15 1 0)
# Probe 63 (0.1 1 0)
# Probe 64 (0.05 1 0)
# Probe 65 (0 0.95 0)
# Probe 66 (0 0.9 0)
# Probe 67 (0 0.85 0)
# Probe 68 (0 0.8 0)
# Probe 69 (0 0.75 0)
# Probe 70 (0 0.7 0)
# Probe 71 (0 0.65 0)
# Probe 72 (0 0.6 0)
# Probe 73 (0 0.55 0)
# Probe 74 (0 0.5 0)
# Probe 75 (0 0.45 0)
# Probe 76 (0 0.4 0)
# Probe 77 (0 0.35 0)
# Probe 78 (0 0.3 0)
# Probe 79 (0 0.25 0)
# Probe 80 (0 0.2 0)
# Probe 81 (0 0.15 0)
# Probe 82 (0 0.1 0)
# Probe 83 (0 0.05 0)
# Probe 84 (0.50952 0.7302 0)
# Probe 85 (0.50808 0.72049 0)
# Probe 86 (0.50569 0.71097 0)
# Probe 87 (0.50239 0.70173 0)
# Probe 88 (0.49819 0.69286 0)
# Probe 89 (0.49315 0.68444 0)
# Probe 90 (0.4873 0.67656 0)
# Probe 91 (0.48071 0.66929 0)
# Probe 92 (0.47344 0.6627 0)
# Probe 93 (0.46556 0.65685 0)
# Probe 94 (0.45714 0.65181 0)
# Probe 95 (0.44827 0.64761 0)
# Probe 96 (0.43903 0.64431 0)
# Probe 97 (0.42951 0.64192 0)
# Probe 98 (0.4198 0.64048 0)
# Probe 99 (0.4002 0.64048 0)
# Probe 100 (0.39049 0.64192 0)
# Probe 101 (0.38097 0.64431 0)
# Probe 102 (0.37173 0.64761 0)
# Probe 103 (0.36286 0.65181 0)
# Probe 104 (0.35444 0.65685 0)
# Probe 105 (0.34656 0.6627 0)
# Probe 106 (0.33929 0.66929 0)
# Probe 107 (0.3327 0.67656 0)
# Probe 108 (0.32685 0.68444 0)
# Probe 109 (0.32181 0.69286 0)
# Probe 110 (0.31761 0.70173 0)
# Probe 111 (0.31431 0.71097 0)
# Probe 112 (0.31192 0.72049 0)
# Probe 113 (0.31048 0.7302 0)
# Probe 114 (0.31048 0.7498 0)
# Probe 115 (0.31192 0.75951 0)
# Probe 116 (0.31431 0.76903 0)
# Probe 117 (0.31761 0.77827 0)
# Probe 118 (0.32181 0.78714 0)
# Probe 119 (0.32685 0.79556 0)
# Probe 120 (0.3327 0.80344 0)
# Probe 121 (0.33929 0.81071 0)
# Probe 122 (0.34656 0.8173 0)
# Probe 123 (0.35444 0.82315 0)
# Probe 124 (0.36286 0.82819 0)
# Probe 125 (0.37173 0.83239 0)
# Probe 126 (0.38097 0.83569 0)
# Probe 127 (0.39049 0.83808 0)
# Probe 128 (0.4002 0.83952 0)
# Probe 129 (0.4198 0.83952 0)
# Probe 130 (0.42951 0.83808 0)
# Probe 131 (0.43903 0.83569 0)
# Probe 132 (0.44827 0.83239 0)
# Probe 133 (0.45714 0.82819 0)
# Probe 134 (0.46556 0.82315 0)
# Probe 135 (0.47344 0.8173 0)
# Probe 136 (0.48071 0.81071 0)
# Probe 137 (0.4873 0.80344 0)
# Probe 138 (0.49315 0.79556 0)
# Probe 139 (0.49819 0.78714 0)
# Probe 140 (0.50239 0.77827 0)
# Probe 141 (0.50569 0.76903 0)
# Probe 142 (0.50808 0.75951 0)
# Probe 143 (0.50952 0.7498 0)
# Probe 144 (0.62793 0.04096 0)
# Probe 145 (0.33207 0.04206 0)
# Probe 146 (0.9567 0.425 0)
# Probe 147 (0.03173 0.37641 0)
# Probe 148 (0.96197 0.57104 0)
# Probe 149 (0.95813 0.72687 0)
# Probe 150 (0.725 0.9567 0)
# Probe 151 (0.47138 0.04059 0)
# Probe 152 (0.04017 0.52159 0)
# Probe 153 (0.9567 0.275 0)
# Probe 154 (0.03623 0.82364 0)
# Probe 155 (0.03826 0.67476 0)
# Probe 156 (0.04165 0.2239 0)
# Probe 157 (0.47456 0.82705 0)
# Probe 158 (0.34555 0.8279 0)
# Probe 159 (0.77095 0.04369 0)
# Probe 160 (0.4458 0.8411 0)
# Probe 161 (0.37349 0.84204 0)
# Probe 162 (0.22865 0.96318 0)
# Probe 163 (0.41621 0.84695 0)
# Probe 164 (0.32953 0.81287 0)
# Probe 165 (0.394 0.8473 0)
# Probe 166 (0.58239 0.96266 0)
# Probe 167 (0.17381 0.05194 0)
# Probe 168 (0.82398 0.96078 0)
# Probe 169 (0.9601 0.82308 0)
# Probe 170 (0.9567 0.175 0)
# Probe 171 (0.31921 0.95736 0)
# Probe 172 (0.12619 0.95725 0)
# Probe 173 (0.47249 0.95741 0)
# Probe 174 (0.04932 0.12308 0)
# Probe 175 (0.87401 0.04158 0)
# Probe 176 (0.92365 0.96015 0)
# Probe 177 (0.03831 0.92472 0)
# Probe 178 (0.0744 0.04146 0)
# Probe 179 (0.95253 0.07599 0)
# Probe 180 (0.51552 0.95866 0)
# Probe 181 (0.54803 0.91798 0)
# Probe 182 (0.49462 0.92491 0)
# Probe 183 (0.4635 0.92077 0)
# Probe 184 (0.48062 0.89683 0)
# Probe 185 (0.45317 0.89445 0)
# Probe 186 (0.43563 0.9147 0)
# Probe 187 (0.42591 0.88982 0)
# Probe 188 (0.40952 0.91025 0)
# Probe 189 (0.40082 0.88665 0)
# Probe 190 (0.3847 0.90588 0)
# Probe 191 (0.37705 0.88161 0)
# Probe 192 (0.36057 0.90132 0)
# Probe 193 (0.35171 0.87844 0)
# Probe 194 (0.33462 0.89888 0)
# Probe 195 (0.32756 0.87442 0)
# Probe 196 (0.31127 0.89303 0)
# Probe 197 (0.3037 0.86528 0)
# Probe 198 (0.28679 0.88748 0)
# Probe 199 (0.27848 0.86381 0)
# Probe 200 (0.26055 0.88382 0)
# Probe 201 (0.25228 0.85832 0)
# Probe 202 (0.30774 0.77665 0)
# Probe 203 (0.31691 0.79573 0)
# Probe 204 (0.27024 0.83586 0)
# Probe 205 (0.24449 0.83188 0)
# Probe 206 (0.22403 0.85462 0)
# Probe 207 (0.21904 0.82594 0)
# Probe 208 (0.23735 0.80708 0)
# Probe 209 (0.21314 0.80052 0)
# Probe 210 (0.23154 0.78298 0)
# Probe 211 (0.3004 0.73466 0)
# Probe 212 (0.30252 0.75588 0)
# Probe 213 (0.20571 0.77373 0)
# Probe 214 (0.22566 0.75762 0)
# Probe 215 (0.20059 0.74983 0)
# Probe 216 (0.21783 0.73165 0)
# Probe 217 (0.19405 0.7256 0)
# Probe 218 (0.21247 0.70814 0)
# Probe 219 (0.31199 0.69359 0)
# Probe 220 (0.30462 0.71291 0)
# Probe 221 (0.18811 0.70084 0)
# Probe 222 (0.20682 0.68352 0)
# Probe 223 (0.18006 0.6748 0)
# Probe 224 (0.20474 0.65612 0)
# Probe 225 (0.17446 0.64841 0)
# Probe 226 (0.19532 0.6295 0)
# Probe 227 (0.22109 0.63518 0)
# Probe 228 (0.21444 0.61166 0)
# Probe 229 (0.33722 0.6597 0)
# Probe 230 (0.32277 0.67497 0)
# Probe 231 (0.24092 0.62095 0)
# Probe 232 (0.23318 0.59602 0)
# Probe 233 (0.25551 0.60285 0)
# Probe 234 (0.25025 0.58016 0)
# Probe 235 (0.27189 0.587 0)
# Probe 236 (0.26722 0.56464 0)
# Probe 237 (0.28855 0.57147 0)
# Probe 238 (0.28393 0.54932 0)
# Probe 239 (0.3052 0.55609 0)
# Probe 240 (0.30054 0.53394 0)
# Probe 241 (0.32187 0.54079 0)
# Probe 242 (0.31723 0.5186 0)
# Probe 243 (0.33898 0.52632 0)
# Probe 244 (0.33412 0.50329 0)
# Probe 245 (0.35601 0.51013 0)
# Probe 246 (0.35117 0.48719 0)
# Probe 247 (0.374 0.49481 0)
# Probe 248 (0.36899 0.47032 0)
# Probe 249 (0.39158 0.47817 0)
# Probe 250 (0.38726 0.45249 0)
# Probe 251 (0.4125 0.46085 0)
# Probe 252 (0.40645 0.43284 0)
# Probe 253 (0.43414 0.44282 0)
# Probe 254 (0.36263 0.44522 0)
# Probe 255 (0.42623 0.63271 0)
# Probe 256 (0.42788 0.41462 0)
# Probe 257 (0.45549 0.42372 0)
# Probe 258 (0.46174 0.45236 0)
# Probe 259 (0.48329 0.43299 0)
# Probe 260 (0.4894 0.46182 0)
# Probe 261 (0.5111 0.44251 0)
# Probe 262 (0.51727 0.47139 0)
# Probe 263 (0.53923 0.45186 0)
# Probe 264 (0.54467 0.48054 0)
# Probe 265 (0.4653 0.64787 0)
# Probe 266 (0.56747 0.46124 0)
# Probe 267 (0.5729 0.4903 0)
# Probe 268 (0.56109 0.43188 0)
# Probe 269 (0.59604 0.47109 0)
# Probe 270 (0.60209 0.501 0)
# Probe 271 (0.44957 0.3943 0)
# Probe 272 (0.42063 0.38544 0)
# Probe 273 (0.29611 0.51227 0)
# Probe 274 (0.24426 0.55367 0)
# Probe 275 (0.62577 0.48064 0)
# Probe 276 (0.63153 0.51148 0)
# Probe 277 (0.39558 0.63152 0)
# Probe 278 (0.44307 0.3639 0)
# Probe 279 (0.41249 0.35463 0)
# Probe 280 (0.61009 0.53046 0)
# Probe 281 (0.4903 0.66722 0)
# Probe 282 (0.63853 0.54196 0)
# Probe 283 (0.66154 0.52207 0)
# Probe 284 (0.66638 0.55338 0)
# Probe 285 (0.64074 0.57472 0)
# Probe 286 (0.67031 0.58427 0)
# Probe 287 (0.64813 0.60419 0)
# Probe 288 (0.51235 0.70273 0)
# Probe 289 (0.67473 0.61363 0)
# Probe 290 (0.51796 0.756 0)
# Probe 291 (0.65258 0.63139 0)
# Probe 292 (0.67882 0.64164 0)
# Probe 293 (0.65683 0.65841 0)
# Probe 294 (0.68267 0.6692 0)
# Probe 295 (0.66093 0.68644 0)
# Probe 296 (0.68805 0.69554 0)
# Probe 297 (0.66609 0.71355 0)
# Probe 298 (0.43626 0.33185 0)
# Probe 299 (0.40417 0.32202 0)
# Probe 300 (0.70042 0.65213 0)
# Probe 301 (0.69438 0.72469 0)
# Probe 302 (0.39603 0.50296 0)
# Probe 303 (0.69175 0.53336 0)
# Probe 304 (0.36387 0.64195 0)
# Probe 305 (0.52256 0.49978 0)
# Probe 306 (0.66563 0.74304 0)
# Probe 307 (0.62782 0.62254 0)
# Probe 308 (0.4289 0.29896 0)
# Probe 309 (0.46201 0.30895 0)
# Probe 310 (0.39572 0.28854 0)
# Probe 311 (0.37043 0.31276 0)
# Probe 312 (0.36194 0.27738 0)
# Probe 313 (0.33495 0.30349 0)
# Probe 314 (0.32593 0.26747 0)
# Probe 315 (0.29843 0.29397 0)
# Probe 316 (0.44651 0.63796 0)
# Probe 317 (0.5175 0.72425 0)
# Probe 318 (0.50264 0.68409 0)
# Probe 319 (0.51185 0.77665 0)
# Probe 320 (0.50327 0.7958 0)
# Probe 321 (0.69866 0.75736 0)
# Probe 322 (0.49056 0.81321 0)
# Probe 323 (0.72518 0.73488 0)
# Probe 324 (0.67285 0.77751 0)
# Probe 325 (0.4559 0.2761 0)
# Probe 326 (0.48974 0.28575 0)
# Probe 327 (0.28881 0.25632 0)
# Probe 328 (0.34246 0.54954 0)
# Probe 329 (0.64137 0.70119 0)
# Probe 330 (0.26078 0.28386 0)
# Probe 331 (0.27104 0.32215 0)
# Probe 332 (0.73054 0.77008 0)
# Probe 333 (0.64303 0.76644 0)
# Probe 334 (0.48296 0.2506 0)
# Probe 335 (0.51818 0.26119 0)
# Probe 336 (0.251 0.24462 0)
# Probe 337 (0.64727 0.79809 0)
# Probe 338 (0.18974 0.60365 0)
# Probe 339 (0.35452 0.24103 0)
# Probe 340 (0.75799 0.74697 0)
# Probe 341 (0.31013 0.58016 0)
# Probe 342 (0.23303 0.31149 0)
# Probe 343 (0.24231 0.34949 0)
# Probe 344 (0.62004 0.78491 0)
# Probe 345 (0.51005 0.22063 0)
# Probe 346 (0.54647 0.23445 0)
# Probe 347 (0.55462 0.27307 0)
# Probe 348 (0.5832 0.24702 0)
# Probe 349 (0.59131 0.28523 0)
# Probe 350 (0.62047 0.25919 0)
# Probe 351 (0.62825 0.29771 0)
# Probe 352 (0.65805 0.27142 0)
# Probe 353 (0.66565 0.31048 0)
# Probe 354 (0.69623 0.28383 0)
# Probe 355 (0.70398 0.32362 0)
# Probe 356 (0.73522 0.29644 0)
# Probe 357 (0.74365 0.33726 0)
# Probe 358 (0.68856 0.24415 0)
# Probe 359 (0.17308 0.74311 0)
# Probe 360 (0.7644 0.7834 0)
# Probe 361 (0.47498 0.21378 0)
# Probe 362 (0.24358 0.64323 0)
# Probe 363 (0.27672 0.60759 0)
# Probe 364 (0.67779 0.81103 0)
# Probe 365 (0.19111 0.81817 0)
# Probe 366 (0.65019 0.83132 0)
# Probe 367 (0.68683 0.50093 0)
# Probe 368 (0.71846 0.51226 0)
# Probe 369 (0.28012 0.21671 0)
# Probe 370 (0.53972 0.19185 0)
# Probe 371 (0.77514 0.30936 0)
# Probe 372 (0.78368 0.35103 0)
# Probe 373 (0.76706 0.26904 0)
# Probe 374 (0.79294 0.7598 0)
# Probe 375 (0.78579 0.72242 0)
# Probe 376 (0.79951 0.79762 0)
# Probe 377 (0.61391 0.22007 0)
# Probe 378 (0.24042 0.20426 0)
# Probe 379 (0.72359 0.54645 0)
# Probe 380 (0.7515 0.5244 0)
# Probe 381 (0.75704 0.55999 0)
# Probe 382 (0.78592 0.5372 0)
# Probe 383 (0.79128 0.57424 0)
# Probe 384 (0.47387 0.37465 0)
# Probe 385 (0.20527 0.33913 0)
# Probe 386 (0.21604 0.37606 0)
# Probe 387 (0.19446 0.30052 0)
# Probe 388 (0.61953 0.44936 0)
# Probe 389 (0.7799 0.50013 0)
# Probe 390 (0.81615 0.51329 0)
# Probe 391 (0.32897 0.48119 0)
# Probe 392 (0.71225 0.47824 0)
# Probe 393 (0.16108 0.69407 0)
# Probe 394 (0.25132 0.38606 0)
# Probe 395 (0.22543 0.41238 0)
# Probe 396 (0.1906 0.40285 0)
# Probe 397 (0.20092 0.43789 0)
# Probe 398 (0.16592 0.4293 0)
# Probe 399 (0.17662 0.46323 0)
# Probe 400 (0.23699 0.71509 0)
# Probe 401 (0.46883 0.48058 0)
# Probe 402 (0.34757 0.33619 0)
# Probe 403 (0.77033 0.82067 0)
# Probe 404 (0.56292 0.31089 0)
# Probe 405 (0.80946 0.4744 0)
# Probe 406 (0.81591 0.32252 0)
# Probe 407 (0.82215 0.73514 0)
# Probe 408 (0.81427 0.69715 0)
# Probe 409 (0.27149 0.17484 0)
# Probe 410 (0.82443 0.36499 0)
# Probe 411 (0.63561 0.3359 0)
# Probe 412 (0.68182 0.84534 0)
# Probe 413 (0.6531 0.86582 0)
# Probe 414 (0.62548 0.84996 0)
# Probe 415 (0.20951 0.47204 0)
# Probe 416 (0.18686 0.49593 0)
# Probe 417 (0.14181 0.4541 0)
# Probe 418 (0.15471 0.39419 0)
# Probe 419 (0.84772 0.48812 0)
# Probe 420 (0.71302 0.36767 0)
# Probe 421 (0.80654 0.83725 0)
# Probe 422 (0.2529 0.79278 0)
# Probe 423 (0.2294 0.16235 0)
# Probe 424 (0.19935 0.19232 0)
# Probe 425 (0.25949 0.42108 0)
# Probe 426 (0.61604 0.75812 0)
# Probe 427 (0.59578 0.77313 0)
# Probe 428 (0.59238 0.75022 0)
# Probe 429 (0.57483 0.76396 0)
# Probe 430 (0.57725 0.78531 0)
# Probe 431 (0.56922 0.74326 0)
# Probe 432 (0.58747 0.72919 0)
# Probe 433 (0.56839 0.72294 0)
# Probe 434 (0.58324 0.70982 0)
# Probe 435 (0.56532 0.70391 0)
# Probe 436 (0.57935 0.69117 0)
# Probe 437 (0.55943 0.68382 0)
# Probe 438 (0.57529 0.67262 0)
# Probe 439 (0.55804 0.66539 0)
# Probe 440 (0.57186 0.65457 0)
# Probe 441 (0.55518 0.64934 0)
# Probe 442 (0.56824 0.63622 0)
# Probe 443 (0.54856 0.63249 0)
# Probe 444 (0.56507 0.61827 0)
# Probe 445 (0.54583 0.6116 0)
# Probe 446 (0.53149 0.62407 0)
# Probe 447 (0.52698 0.60518 0)
# Probe 448 (0.54173 0.59178 0)
# Probe 449 (0.52261 0.5865 0)
# Probe 450 (0.50857 0.59955 0)
# Probe 451 (0.50406 0.58154 0)
# Probe 452 (0.49078 0.59454 0)
# Probe 453 (0.48617 0.57687 0)
# Probe 454 (0.47353 0.58954 0)
# Probe 455 (0.46876 0.5722 0)
# Probe 456 (0.45629 0.58472 0)
# Probe 457 (0.45153 0.56748 0)
# Probe 458 (0.43861 0.5798 0)
# Probe 459 (0.43422 0.56273 0)
# Probe 460 (0.42126 0.57512 0)
# Probe 461 (0.53697 0.57188 0)
# Probe 462 (0.46401 0.55543 0)
# Probe 463 (0.49416 0.61405 0)
# Probe 464 (0.5429 0.66039 0)
# Probe 465 (0.41691 0.55804 0)
# Probe 466 (0.40456 0.57082 0)
# Probe 467 (0.42952 0.54608 0)
# Probe 468 (0.40875 0.58725 0)
# Probe 469 (0.39277 0.58315 0)
# Probe 470 (0.5001 0.56307 0)
# Probe 471 (0.55764 0.57771 0)
# Probe 472 (0.39898 0.55382 0)
# Probe 473 (0.44343 0.59681 0)
# Probe 474 (0.5585 0.77578 0)
# Probe 475 (0.55935 0.79604 0)
# Probe 476 (0.85332 0.52769 0)
# Probe 477 (0.83852 0.81114 0)
# Probe 478 (0.8462 0.85308 0)
# Probe 479 (0.55257 0.55623 0)
# Probe 480 (0.59382 0.67858 0)
# Probe 481 (0.55286 0.73173 0)
# Probe 482 (0.28413 0.3964 0)
# Probe 483 (0.85729 0.33683 0)
# Probe 484 (0.84572 0.29597 0)
# Probe 485 (0.54813 0.69772 0)
# Probe 486 (0.85132 0.70969 0)
# Probe 487 (0.84354 0.66853 0)
# Probe 488 (0.39681 0.59875 0)
# Probe 489 (0.3814 0.59514 0)
# Probe 490 (0.37729 0.57971 0)
# Probe 491 (0.36633 0.59139 0)
# Probe 492 (0.37118 0.60645 0)
# Probe 493 (0.35549 0.60366 0)
# Probe 494 (0.41177 0.60237 0)
# Probe 495 (0.18653 0.14981 0)
# Probe 496 (0.15483 0.18097 0)
# Probe 497 (0.35072 0.58817 0)
# Probe 498 (0.34076 0.60086 0)
# Probe 499 (0.345 0.61578 0)
# Probe 500 (0.33084 0.61315 0)
# Probe 501 (0.33525 0.6271 0)
# Probe 502 (0.32083 0.6245 0)
# Probe 503 (0.88659 0.50299 0)
# Probe 504 (0.77466 0.85729 0)
# Probe 505 (0.26138 0.13203 0)
# Probe 506 (0.30383 0.14525 0)
# Probe 507 (0.77755 0.68505 0)
# Probe 508 (0.57777 0.80623 0)
# Probe 509 (0.55972 0.81748 0)
# Probe 510 (0.54006 0.80832 0)
# Probe 511 (0.541 0.83001 0)
# Probe 512 (0.56057 0.84045 0)
# Probe 513 (0.53994 0.851 0)
# Probe 514 (0.76217 0.59671 0)
# Probe 515 (0.56071 0.86473 0)
# Probe 516 (0.86616 0.37876 0)
# Probe 517 (0.61964 0.8843 0)
# Probe 518 (0.52129 0.83812 0)
# Probe 519 (0.142 0.13646 0)
# Probe 520 (0.46705 0.87276 0)
# Probe 521 (0.65626 0.90224 0)
# Probe 522 (0.49299 0.8746 0)
# Probe 523 (0.8813 0.68451 0)
# Probe 524 (0.87506 0.64204 0)
# Probe 525 (0.32296 0.85269 0)
# Probe 526 (0.89993 0.3506 0)
# Probe 527 (0.29198 0.4288 0)
# Probe 528 (0.27083 0.45013 0)
# Probe 529 (0.31573 0.4062 0)
# Probe 530 (0.21847 0.50294 0)
# Probe 531 (0.1967 0.52643 0)
# Probe 532 (0.1648 0.5197 0)
# Probe 533 (0.79259 0.39272 0)
# Probe 534 (0.39048 0.37504 0)
# Probe 535 (0.31527 0.60938 0)
# Probe 536 (0.49831 0.32207 0)
# Probe 537 (0.58426 0.64292 0)
# Probe 538 (0.32599 0.6384 0)
# Probe 539 (0.31155 0.63593 0)
# Probe 540 (0.31659 0.64957 0)
# Probe 541 (0.30211 0.64707 0)
# Probe 542 (0.16615 0.32955 0)
# Probe 543 (0.15483 0.28984 0)
# Probe 544 (0.12463 0.31964 0)
# Probe 545 (0.2698 0.9091 0)
# Probe 546 (0.87989 0.46219 0)
# Probe 547 (0.77193 0.46129 0)
# Probe 548 (0.65038 0.45917 0)
# Probe 549 (0.64363 0.42754 0)
# Probe 550 (0.79741 0.61221 0)
# Probe 551 (0.82809 0.58912 0)
# Probe 552 (0.69867 0.59536 0)
# Probe 553 (0.53162 0.55159 0)
# Probe 554 (0.54694 0.53382 0)
# Probe 555 (0.5052 0.41379 0)
# Probe 556 (0.11253 0.27929 0)
# Probe 557 (0.30684 0.6612 0)
# Probe 558 (0.2925 0.65913 0)
# Probe 559 (0.28706 0.64388 0)
# Probe 560 (0.27687 0.6565 0)
# Probe 561 (0.28313 0.67173 0)
# Probe 562 (0.2663 0.66952 0)
# Probe 563 (0.27333 0.68492 0)
# Probe 564 (0.25644 0.68273 0)
# Probe 565 (0.61181 0.41816 0)
# Probe 566 (0.85946 0.74916 0)
# Probe 567 (0.17478 0.54991 0)
# Probe 568 (0.14302 0.54424 0)
# Probe 569 (0.08177 0.30963 0)
# Probe 570 (0.91489 0.65761 0)
# Probe 571 (0.13217 0.51191 0)
# Probe 572 (0.11022 0.16857 0)
# Probe 573 (0.57443 0.5629 0)
# Probe 574 (0.57941 0.58582 0)
# Probe 575 (0.39075 0.93326 0)
# Probe 576 (0.67571 0.43669 0)
# Probe 577 (0.47957 0.8538 0)
# Probe 578 (0.34288 0.64017 0)
# Probe 579 (0.29112 0.68719 0)
# Probe 580 (0.28048 0.69941 0)
# Probe 581 (0.40152 0.6126 0)
# Probe 582 (0.24016 0.9055 0)
# Probe 583 (0.15316 0.57303 0)
# Probe 584 (0.11965 0.56584 0)
# Probe 585 (0.13572 0.60246 0)
# Probe 586 (0.09533 0.59505 0)
# Probe 587 (0.1057 0.63477 0)
# Probe 588 (0.41426 0.6165 0)
# Probe 589 (0.87932 0.82641 0)
# Probe 590 (0.88703 0.86961 0)
# Probe 591 (0.53565 0.87658 0)
# Probe 592 (0.59752 0.57126 0)
# Probe 593 (0.60238 0.71527 0)
# Probe 594 (0.89473 0.54494 0)
# Probe 595 (0.92695 0.51384 0)
# Probe 596 (0.66412 0.40468 0)
# Probe 597 (0.62528 0.9235 0)
# Probe 598 (0.70329 0.41327 0)
# Probe 599 (0.18447 0.26028 0)
# Probe 600 (0.42455 0.60703 0)
# Probe 601 (0.30888 0.37457 0)
# Probe 602 (0.70957 0.82484 0)
# Probe 603 (0.71471 0.86065 0)
# Probe 604 (0.33913 0.38499 0)
# Probe 605 (0.07207 0.61924 0)
# Probe 606 (0.27098 0.63987 0)
# Probe 607 (0.05236 0.59031 0)
# Probe 608 (0.76544 0.63114 0)
# Probe 609 (0.29196 0.10066 0)
# Probe 610 (0.33572 0.11657 0)
# Probe 611 (0.34615 0.15817 0)
# Probe 612 (0.37835 0.12888 0)
# Probe 613 (0.38745 0.17085 0)
# Probe 614 (0.41978 0.14201 0)
# Probe 615 (0.41109 0.1018 0)
# Probe 616 (0.45334 0.11422 0)
# Probe 617 (0.24709 0.08722 0)
# Probe 618 (0.60209 0.59379 0)
# Probe 619 (0.2062 0.55688 0)
# Probe 620 (0.90151 0.61299 0)
# Probe 621 (0.44442 0.8715 0)
# Probe 622 (0.42406 0.86993 0)
# Probe 623 (0.31947 0.43557 0)
# Probe 624 (0.65681 0.9456 0)
# Probe 625 (0.45928 0.15373 0)
# Probe 626 (0.49378 0.12687 0)
# Probe 627 (0.27214 0.96493 0)
# Probe 628 (0.84819 0.89406 0)
# Probe 629 (0.12422 0.21087 0)
# Probe 630 (0.33227 0.58514 0)
# Probe 631 (0.23986 0.48251 0)
# Probe 632 (0.25122 0.51014 0)
# Probe 633 (0.26651 0.4885 0)
# Probe 634 (0.46213 0.85458 0)
# Probe 635 (0.59322 0.90646 0)
# Probe 636 (0.3434 0.85653 0)
# Probe 637 (0.36436 0.86095 0)
# Probe 638 (0.63406 0.74087 0)
# Probe 639 (0.22838 0.69184 0)
# Probe 640 (0.2264 0.67154 0)
# Probe 641 (0.73157 0.61267 0)
# Probe 642 (0.55564 0.75905 0)
# Probe 643 (0.54154 0.76948 0)
# Probe 644 (0.53815 0.74632 0)
# Probe 645 (0.38384 0.86406 0)
# Probe 646 (0.09693 0.34732 0)
# Probe 647 (0.55143 0.71509 0)
# Probe 648 (0.53656 0.70918 0)
# Probe 649 (0.53304 0.69439 0)
# Probe 650 (0.5388 0.72304 0)
# Probe 651 (0.54256 0.68301 0)
# Probe 652 (0.52697 0.68001 0)
# Probe 653 (0.54255 0.78527 0)
# Probe 654 (0.52795 0.7939 0)
# Probe 655 (0.52202 0.80812 0)
# Probe 656 (0.2923 0.84297 0)
# Probe 657 (0.28799 0.8232 0)
# Probe 658 (0.30761 0.82771 0)
# Probe 659 (0.30107 0.80994 0)
# Probe 660 (0.28493 0.80546 0)
# Probe 661 (0.29414 0.79492 0)
# Probe 662 (0.28033 0.78937 0)
# Probe 663 (0.80008 0.65517 0)
# Probe 664 (0.43042 0.96558 0)
# Probe 665 (0.25817 0.81397 0)
# Probe 666 (0.52956 0.77844 0)
# Probe 667 (0.176 0.10402 0)
# Probe 668 (0.13212 0.09011 0)
# Probe 669 (0.34565 0.56994 0)
# Probe 670 (0.29547 0.70387 0)
# Probe 671 (0.28562 0.71442 0)
# Probe 672 (0.27154 0.71196 0)
# Probe 673 (0.27789 0.72656 0)
# Probe 674 (0.25706 0.7249 0)
# Probe 675 (0.26853 0.74017 0)
# Probe 676 (0.25285 0.74125 0)
# Probe 677 (0.26016 0.75527 0)
# Probe 678 (0.27935 0.75591 0)
# Probe 679 (0.26867 0.7674 0)
# Probe 680 (0.28731 0.74043 0)
# Probe 681 (0.9506 0.62059 0)
# Probe 682 (0.5192 0.69093 0)
# Probe 683 (0.2825 0.7741 0)
# Probe 684 (0.50372 0.85184 0)
# Probe 685 (0.49075 0.83779 0)
# Probe 686 (0.51295 0.6177 0)
# Probe 687 (0.51725 0.63482 0)
# Probe 688 (0.53125 0.64139 0)
# Probe 689 (0.5183 0.65046 0)
# Probe 690 (0.50521 0.64495 0)
# Probe 691 (0.50759 0.65878 0)
# Probe 692 (0.5194 0.66652 0)
# Probe 693 (0.49438 0.65528 0)
# Probe 694 (0.49224 0.641 0)
# Probe 695 (0.48307 0.64846 0)
# Probe 696 (0.4807 0.63583 0)
# Probe 697 (0.2915 0.59301 0)
# Probe 698 (0.91721 0.39519 0)
# Probe 699 (0.51208 0.89584 0)
# Probe 700 (0.47777 0.60662 0)
# Probe 701 (0.46059 0.60114 0)
# Probe 702 (0.44977 0.6126 0)
# Probe 703 (0.46395 0.61678 0)
# Probe 704 (0.35048 0.62858 0)
# Probe 705 (0.36022 0.61787 0)
# Probe 706 (0.37417 0.62021 0)
# Probe 707 (0.38709 0.6112 0)
# Probe 708 (0.51684 0.67913 0)
# Probe 709 (0.33388 0.84308 0)
# Probe 710 (0.47793 0.62196 0)
# Probe 711 (0.46917 0.6307 0)
# Probe 712 (0.40479 0.6244 0)
# Probe 713 (0.45415 0.62742 0)
# Probe 714 (0.4407 0.62301 0)
# Probe 715 (0.94819 0.35499 0)
# Probe 716 (0.69771 0.9233 0)
# Probe 717 (0.58151 0.85174 0)
# Probe 718 (0.63171 0.64785 0)
# Probe 719 (0.63664 0.67488 0)
# Probe 720 (0.49607 0.49016 0)
# Probe 721 (0.47503 0.50701 0)
# Probe 722 (0.45001 0.49894 0)
# Probe 723 (0.45621 0.52124 0)
# Probe 724 (0.43554 0.51519 0)
# Probe 725 (0.47798 0.5284 0)
# Probe 726 (0.4288 0.49362 0)
# Probe 727 (0.61533 0.69288 0)
# Probe 728 (0.43435 0.8574 0)
# Probe 729 (0.49921 0.51546 0)
# Probe 730 (0.29905 0.45532 0)
# Probe 731 (0.22773 0.53256 0)
# Probe 732 (0.32626 0.56361 0)
# Probe 733 (0.3605 0.55767 0)
# Probe 734 (0.359 0.53527 0)
# Probe 735 (0.37949 0.52236 0)
# Probe 736 (0.40236 0.52521 0)
# Probe 737 (0.40485 0.86659 0)
# Probe 738 (0.18046 0.95387 0)
# Probe 739 (0.14967 0.91617 0)
# Probe 740 (0.10687 0.91437 0)
# Probe 741 (0.12905 0.87872 0)
# Probe 742 (0.16891 0.88104 0)
# Probe 743 (0.14935 0.84482 0)
# Probe 744 (0.11123 0.8431 0)
# Probe 745 (0.1306 0.8106 0)
# Probe 746 (0.1862 0.91231 0)
# Probe 747 (0.09541 0.80802 0)
# Probe 748 (0.11449 0.7765 0)
# Probe 749 (0.07728 0.77391 0)
# Probe 750 (0.09744 0.74148 0)
# Probe 751 (0.05401 0.74265 0)
# Probe 752 (0.15157 0.78003 0)
# Probe 753 (0.35623 0.84677 0)
# Probe 754 (0.34328 0.92828 0)
# Probe 755 (0.07422 0.70133 0)
# Probe 756 (0.11502 0.71034 0)
# Probe 757 (0.13556 0.74332 0)
# Probe 758 (0.10252 0.674 0)
# Probe 759 (0.38415 0.63495 0)
# Probe 760 (0.23799 0.44949 0)
# Probe 761 (0.29848 0.67288 0)
# Probe 762 (0.43721 0.63376 0)
# Probe 763 (0.41565 0.63059 0)
# Probe 764 (0.3737 0.63833 0)
# Probe 765 (0.3542 0.64675 0)
# Probe 766 (0.45591 0.64192 0)
# Probe 767 (0.34496 0.65261 0)
# Probe 768 (0.49676 0.67509 0)
# Probe 769 (0.77449 0.95873 0)
# Probe 770 (0.74994 0.91805 0)
# Probe 771 (0.3786 0.54748 0)
# Probe 772 (0.5189 0.74524 0)
# Probe 773 (0.51498 0.76634 0)
# Probe 774 (0.52741 0.76475 0)
# Probe 775 (0.50805 0.78639 0)
# Probe 776 (0.79804 0.91686 0)
# Probe 777 (0.51835 0.73466 0)
# Probe 778 (0.51599 0.71383 0)
# Probe 779 (0.52389 0.70481 0)
# Probe 780 (0.50246 0.63022 0)
# Probe 781 (0.04418 0.87403 0)
# Probe 782 (0.31678 0.68398 0)
# Probe 783 (0.32959 0.66697 0)
# Probe 784 (0.30279 0.7241 0)
# Probe 785 (0.30041 0.7455 0)
# Probe 786 (0.42594 0.59273 0)
# Probe 787 (0.1413 0.63594 0)
# Probe 788 (0.04099 0.47511 0)
# Probe 789 (0.08597 0.50312 0)
# Probe 790 (0.07968 0.45564 0)
# Probe 791 (0.08004 0.54864 0)
# Probe 792 (0.04491 0.42084 0)
# Probe 793 (0.09395 0.4183 0)
# Probe 794 (0.95801 0.77486 0)
# Probe 795 (0.90914 0.75235 0)
# Probe 796 (0.4268 0.62007 0)
# Probe 797 (0.46583 0.83315 0)
# Probe 798 (0.59921 0.323 0)
# Probe 799 (0.57056 0.34726 0)
# Probe 800 (0.53513 0.33513 0)
# Probe 801 (0.54552 0.37048 0)
# Probe 802 (0.5773 0.38012 0)
# Probe 803 (0.50945 0.35966 0)
# Probe 804 (0.49584 0.54167 0)
# Probe 805 (0.30769 0.70285 0)
# Probe 806 (0.49588 0.17615 0)
# Probe 807 (0.53353 0.14403 0)
# Probe 808 (0.52722 0.09633 0)
# Probe 809 (0.56846 0.1158 0)
# Probe 810 (0.57292 0.16655 0)
# Probe 811 (0.6084 0.13638 0)
# Probe 812 (0.56225 0.07647 0)
# Probe 813 (0.60708 0.08501 0)
# Probe 814 (0.64726 0.11387 0)
# Probe 815 (0.64719 0.15689 0)
# Probe 816 (0.68658 0.13637 0)
# Probe 817 (0.68592 0.09107 0)
# Probe 818 (0.72631 0.11383 0)
# Probe 819 (0.7261 0.15999 0)
# Probe 820 (0.76622 0.13736 0)
# Probe 821 (0.76526 0.18294 0)
# Probe 822 (0.80592 0.16112 0)
# Probe 823 (0.80363 0.20513 0)
# Probe 824 (0.84603 0.18484 0)
# Probe 825 (0.84696 0.13763 0)
# Probe 826 (0.88664 0.16605 0)
# Probe 827 (0.88172 0.21358 0)
# Probe 828 (0.88853 0.12022 0)
# Probe 829 (0.71874 0.20942 0)
# Probe 830 (0.84846 0.08757 0)
# Probe 831 (0.72485 0.06849 0)
# Probe 832 (0.52834 0.7398 0)
# Probe 833 (0.60477 0.35809 0)
# Probe 834 (0.64214 0.37327 0)
# Probe 835 (0.6742 0.34791 0)
# Probe 836 (0.68051 0.04338 0)
# Probe 837 (0.89616 0.91768 0)
# Probe 838 (0.92764 0.88548 0)
# Probe 839 (0.2086 0.88725 0)
# Probe 840 (0.35446 0.83417 0)
# Probe 841 (0.33714 0.82052 0)
# Probe 842 (0.32638 0.82362 0)
# Probe 843 (0.31624 0.81406 0)
# Probe 844 (0.57912 0.52063 0)
# Probe 845 (0.31391 0.18786 0)
# Probe 846 (0.75154 0.71044 0)
# Probe 847 (0.74247 0.68006 0)
# Probe 848 (0.30461 0.7664 0)
# Probe 849 (0.45626 0.84111 0)
# Probe 850 (0.61984 0.81585 0)
# Probe 851 (0.95674 0.47417 0)
# Probe 852 (0.32216 0.80447 0)
# Probe 853 (0.31203 0.78633 0)
# Probe 854 (0.44074 0.47186 0)
# Probe 855 (0.35374 0.19996 0)
# Probe 856 (0.39762 0.2133 0)
# Probe 857 (0.42746 0.17926 0)
# Probe 858 (0.61277 0.66548 0)
# Probe 859 (0.52648 0.29802 0)
# Probe 860 (0.68293 0.17872 0)
# Probe 861 (0.42615 0.84747 0)
# Probe 862 (0.75435 0.37875 0)
# Probe 863 (0.76513 0.42008 0)
# Probe 864 (0.37743 0.04062 0)
# Probe 865 (0.42365 0.04014 0)
# Probe 866 (0.28169 0.0509 0)
# Probe 867 (0.22688 0.04525 0)
# Probe 868 (0.29583 0.613 0)
# Probe 869 (0.80217 0.43388 0)
# Probe 870 (0.95795 0.67717 0)
# Probe 871 (0.48278 0.8203 0)
# Probe 872 (0.49764 0.80503 0)
# Probe 873 (0.50166 0.81605 0)
# Probe 874 (0.47678 0.83774 0)
# Probe 875 (0.3097 0.33596 0)
# Probe 876 (0.26401 0.62227 0)
# Probe 877 (0.91584 0.79888 0)
# Probe 878 (0.3857 0.62479 0)
# Probe 879 (0.3115 0.67371 0)
# Probe 880 (0.34605 0.41797 0)
# Probe 881 (0.37842 0.42479 0)
# Probe 882 (0.28195 0.62669 0)
# Probe 883 (0.38367 0.84513 0)
# Probe 884 (0.40621 0.8508 0)
# Probe 885 (0.3929 0.25401 0)
# Probe 886 (0.42302 0.23771 0)
# Probe 887 (0.95894 0.22303 0)
# Probe 888 (0.24985 0.77051 0)
# Probe 889 (0.50872 0.80675 0)
# Probe 890 (0.04137 0.1751 0)
# Probe 891 (0.04588 0.27573 0)
# Probe 892 (0.36603 0.96103 0)
# Probe 893 (0.31297 0.92288 0)
# Probe 894 (0.82443 0.04144 0)
# Probe 895 (0.95757 0.12519 0)
# Probe 896 (0.16824 0.62062 0)
# Probe 897 (0.50797 0.69366 0)
# Probe 898 (0.56132 0.89572 0)
# Probe 899 (0.52662 0.71726 0)
# Probe 900 (0.08786 0.87524 0)
# Probe 901 (0.87391 0.96181 0)
# Probe 902 (0.52234 0.52881 0)
# Probe 903 (0.29181 0.72686 0)
# Probe 904 (0.24614 0.66464 0)
# Probe 905 (0.18948 0.85183 0)
# Probe 906 (0.92885 0.31573 0)
# Probe 907 (0.91097 0.27935 0)
# Probe 908 (0.36495 0.6305 0)
# Probe 909 (0.8637 0.60272 0)
# Probe 910 (0.27648 0.3609 0)
# Probe 911 (0.83896 0.22859 0)
# Probe 912 (0.76634 0.09234 0)
# Probe 913 (0.5481 0.50743 0)
# Probe 914 (0.7279 0.57941 0)
# Probe 915 (0.09955 0.12567 0)
# Probe 916 (0.12244 0.04308 0)
# Probe 917 (0.60468 0.64017 0)
# Probe 918 (0.15162 0.66615 0)
# Probe 919 (0.38094 0.34421 0)
# Probe 920 (0.80618 0.11531 0)
# Probe 921 (0.83317 0.40646 0)
# Probe 922 (0.25543 0.7093 0)
# Probe 923 (0.52597 0.04794 0)
# Probe 924 (0.20954 0.5874 0)
# Probe 925 (0.83465 0.6283 0)
# Probe 926 (0.71804 0.70378 0)
# Probe 927 (0.8408 0.44755 0)
# Probe 928 (0.32678 0.6566 0)
# Probe 929 (0.21892 0.1198 0)
# Probe 930 (0.57795 0.20599 0)
# Probe 931 (0.29175 0.75226 0)
# Probe 932 (0.0756 0.95214 0)
# Probe 933 (0.80571 0.28401 0)
# Probe 934 (0.5285 0.75152 0)
# Probe 935 (0.47049 0.34351 0)
# Probe 936 (0.72807 0.25477 0)
# Probe 937 (0.73384 0.44497 0)
# Probe 938 (0.38819 0.56743 0)
# Probe 939 (0.74465 0.48688 0)
# Probe 940 (0.0474 0.33403 0)
# Probe 941 (0.30533 0.68423 0)
# Probe 942 (0.31951 0.22823 0)
# Probe 943 (0.48273 0.65954 0)
# Probe 944 (0.1406 0.3575 0)
# Probe 945 (0.58237 0.60621 0)
# Probe 946 (0.65617 0.49056 0)
# Probe 947 (0.82869 0.77278 0)
# Probe 948 (0.64976 0.23355 0)
# Probe 949 (0.82141 0.55109 0)
# Probe 950 (0.17956 0.36632 0)
# Probe 951 (0.80785 0.8757 0)
# Probe 952 (0.36529 0.0825 0)
# Probe 953 (0.31877 0.59343 0)
# Probe 954 (0.22285 0.27232 0)
# Probe 955 (0.69644 0.56537 0)
# Probe 956 (0.70435 0.79069 0)
# Probe 957 (0.58973 0.44042 0)
# Probe 958 (0.0418 0.07555 0)
# Probe 959 (0.92328 0.03821 0)
# Probe 960 (0.91759 0.70791 0)
# Probe 961 (0.48659 0.0833 0)
# Probe 962 (0.53307 0.42319 0)
# Probe 963 (0.27397 0.52652 0)
# Probe 964 (0.16295 0.80925 0)
# Probe 965 (0.26341 0.5448 0)
# Probe 966 (0.95597 0.92265 0)
# Probe 967 (0.61863 0.96126 0)
# Probe 968 (0.4895 0.62861 0)
# Probe 969 (0.47765 0.40423 0)
# Probe 970 (0.31275 0.49703 0)
# Probe 971 (0.76304 0.2271 0)