# Probe 0 (0 0 0)
# Probe 1 (1 0 0)
# Probe 2 (1 1 0)
# Probe 3 (0 1 0)
# Probe 4 (0.68 0.43 0)
# Probe 5 (0.58 0.33 0)
# Probe 6 (0.48 0.43 0)
# Probe 7 (0.58 0.53 0)
# Probe 8 (0.05 0 0)
# Probe 9 (0.1 0 0)
# Probe 10 (0.15 0 0)
# Probe 11 (0.2 0 0)
# Probe 12 (0.25 0 0)
# Probe 13 (0.3 0 0)
# Probe 14 (0.35 0 0)
# Probe 15 (0.4 0 0)
# Probe 16 (0.45 0 0)
# Probe 17 (0.5 0 0)
# Probe 18 (0.55 0 0)
# Probe 19 (0.6 0 0)
# Probe 20 (0.65 0 0)
# Probe 21 (0.7 0 0)
# Probe 22 (0.75 0 0)
# Probe 23 (0.8 0 0)
# Probe 24 (0.85 0 0)
# Probe 25 (0.9 0 0)
# Probe 26 (0.95 0 0)
# Probe 27 (1 0.05 0)
# Probe 28 (1 0.1 0)
# Probe 29 (1 0.15 0)
# Probe 30 (1 0.2 0)
# Probe 31 (1 0.25 0)
# Probe 32 (1 0.3 0)
# Probe 33 (1 0.35 0)
# Probe 34 (1 0.4 0)
# Probe 35 (1 0.45 0)
# Probe 36 (1 0.5 0)
# Probe 37 (1 0.55 0)
# Probe 38 (1 0.6 0)
# Probe 39 (1 0.65 0)
# Probe 40 (1 0.7 0)
# Probe 41 (1 0.75 0)
# Probe 42 (1 0.8 0)
# Probe 43 (1 0.85 0)
# Probe 44 (1 0.9 0)
# Probe 45 (1 0.95 0)
# Probe 46 (0.95 1 0)
# Probe 47 (0.9 1 0)
# Probe 48 (0.85 1 0)
# Probe 49 (0.8 1 0)
# Probe 50 (0.75 1 0)
# Probe 51 (0.7 1 0)
# Probe 52 (0.65 1 0)
# Probe 53 (0.6 1 0)
# Probe 54 (0.55 1 0)
# Probe 55 (0.5 1 0)
# Probe 56 (0.45 1 0)
# Probe 57 (0.4 1 0)
# Probe 58 (0.35 1 0)
# Probe 59 (0.3 1 0)
# Probe 60 (0.25 1 0)
# Probe 61 (0.2 1 0)
# Probe 62 (0.15 1 0)
# Probe 63 (0.1 1 0)
# Probe 64 (0.05 1 0)
# Probe 65 (0 0.95 0)
# Probe 66 (0 0.9 0)
# Probe 67 (0 0.85 0)
# Probe 68 (0 0.8 0)
# Probe 69 (0 0.75 0)
# Probe 70 (0 0.7 0)
# Probe 71 (0 0.65 0)
# Probe 72 (0 0.6 0)
# Probe 73 (0 0.55 0)
# Probe 74 (0 0.5 0)
# Probe 75 (0 0.45 0)
# Probe 76 (0 0.4 0)
# Probe 77 (0 0.35 0)
# Probe 78 (0 0.3 0)
# Probe 79 (0 0.25 0)
# Probe 80 (0 0.2 0)
# Probe 81 (0 0.15 0)
# Probe 82 (0 0.1 0)
# Probe 83 (0 0.05 0)
# Probe 84 (0.67952 0.4202 0)
# Probe 85 (0.67808 0.41049 0)
# Probe 86 (0.67569 0.40097 0)
# Probe 87 (0.67239 0.39173 0)
# Probe 88 (0.66819 0.38286 0)
# Probe 89 (0.66315 0.37444 0)
# Probe 90 (0.6573 0.36656 0)
# Probe 91 (0.65071 0.35929 0)
# Probe 92 (0.64344 0.3527 0)
# Probe 93 (0.63556 0.34685 0)
# Probe 94 (0.62714 0.34181 0)
# Probe 95 (0.61827 0.33761 0)
# Probe 96 (0.60903 0.33431 0)
# Probe 97 (0.59951 0.33192 0)
# Probe 98 (0.5898 0.33048 0)
# Probe 99 (0.5702 0.33048 0)
# Probe 100 (0.56049 0.33192 0)
# Probe 101 (0.55097 0.33431 0)
# Probe 102 (0.54173 0.33761 0)
# Probe 103 (0.53286 0.34181 0)
# Probe 104 (0.52444 0.34685 0)
# Probe 105 (0.51656 0.3527 0)
# Probe 106 (0.50929 0.35929 0)
# Probe 107 (0.5027 0.36656 0)
# Probe 108 (0.49685 0.37444 0)
# Probe 109 (0.49181 0.38286 0)
# Probe 110 (0.48761 0.39173 0)
# Probe 111 (0.48431 0.40097 0)
# Probe 112 (0.48192 0.41049 0)
# Probe 113 (0.48048 0.4202 0)
# Probe 114 (0.48048 0.4398 0)
# Probe 115 (0.48192 0.44951 0)
# Probe 116 (0.48431 0.45903 0)
# Probe 117 (0.48761 0.46827 0)
# Probe 118 (0.49181 0.47714 0)
# Probe 119 (0.49685 0.48556 0)
# Probe 120 (0.5027 0.49344 0)
# Probe 121 (0.50929 0.50071 0)
# Probe 122 (0.51656 0.5073 0)
# Probe 123 (0.52444 0.51315 0)
# Probe 124 (0.53286 0.51819 0)
# Probe 125 (0.54173 0.52239 0)
# Probe 126 (0.55097 0.52569 0)
# Probe 127 (0.56049 0.52808 0)
# Probe 128 (0.5702 0.52952 0)
# Probe 129 (0.5898 0.52952 0)
# Probe 130 (0.59951 0.52808 0)
# Probe 131 (0.60903 0.52569 0)
# Probe 132 (0.61827 0.52239 0)
# Probe 133 (0.62714 0.51819 0)
# Probe 134 (0.63556 0.51315 0)
# Probe 135 (0.64344 0.5073 0)
# Probe 136 (0.65071 0.50071 0)
# Probe 137 (0.6573 0.49344 0)
# Probe 138 (0.66315 0.48556 0)
# Probe 139 (0.66819 0.47714 0)
# Probe 140 (0.67239 0.46827 0)
# Probe 141 (0.67569 0.45903 0)
# Probe 142 (0.67808 0.44951 0)
# Probe 143 (0.67952 0.4398 0)
# Probe 144 (0.04335 0.67686 0)
# Probe 145 (0.32235 0.95892 0)
# Probe 146 (0.04113 0.27361 0)
# Probe 147 (0.725 0.9567 0)
# Probe 148 (0.04019 0.52633 0)
# Probe 149 (0.48135 0.96061 0)
# Probe 150 (0.32348 0.04182 0)
# Probe 151 (0.96068 0.67485 0)
# Probe 152 (0.77649 0.04081 0)
# Probe 153 (0.96012 0.27852 0)
# Probe 154 (0.47447 0.03834 0)
# Probe 155 (0.95882 0.52356 0)
# Probe 156 (0.62404 0.04352 0)
# Probe 157 (0.04266 0.82614 0)
# Probe 158 (0.95845 0.82486 0)
# Probe 159 (0.17403 0.04174 0)
# Probe 160 (0.175 0.9567 0)
# Probe 161 (0.95803 0.427 0)
# Probe 162 (0.95764 0.17507 0)
# Probe 163 (0.57481 0.96164 0)
# Probe 164 (0.82542 0.95816 0)
# Probe 165 (0.04637 0.42802 0)
# Probe 166 (0.04151 0.17169 0)
# Probe 167 (0.87474 0.04304 0)
# Probe 168 (0.92295 0.95797 0)
# Probe 169 (0.04212 0.923 0)
# Probe 170 (0.04199 0.07496 0)
# Probe 171 (0.95186 0.07877 0)
# Probe 172 (0.959 0.47541 0)
# Probe 173 (0.91973 0.49893 0)
# Probe 174 (0.91957 0.54253 0)
# Probe 175 (0.88504 0.5202 0)
# Probe 176 (0.68513 0.45633 0)
# Probe 177 (0.88301 0.5592 0)
# Probe 178 (0.85282 0.53937 0)
# Probe 179 (0.8519 0.57409 0)
# Probe 180 (0.85273 0.50482 0)
# Probe 181 (0.82612 0.55551 0)
# Probe 182 (0.82284 0.58804 0)
# Probe 183 (0.66705 0.49456 0)
# Probe 184 (0.79741 0.56682 0)
# Probe 185 (0.79529 0.60086 0)
# Probe 186 (0.77096 0.58525 0)
# Probe 187 (0.76884 0.61328 0)
# Probe 188 (0.6449 0.51635 0)
# Probe 189 (0.74621 0.59944 0)
# Probe 190 (0.74393 0.62503 0)
# Probe 191 (0.7227 0.61324 0)
# Probe 192 (0.721 0.63833 0)
# Probe 193 (0.69979 0.62589 0)
# Probe 194 (0.69818 0.65077 0)
# Probe 195 (0.67614 0.6375 0)
# Probe 196 (0.67531 0.66281 0)
# Probe 197 (0.65293 0.64951 0)
# Probe 198 (0.65251 0.67469 0)
# Probe 199 (0.63044 0.66129 0)
# Probe 200 (0.72016 0.66339 0)
# Probe 201 (0.58487 0.5389 0)
# Probe 202 (0.62958 0.68697 0)
# Probe 203 (0.60742 0.67316 0)
# Probe 204 (0.65083 0.70164 0)
# Probe 205 (0.60645 0.69924 0)
# Probe 206 (0.58395 0.68516 0)
# Probe 207 (0.61679 0.53175 0)
# Probe 208 (0.58272 0.71194 0)
# Probe 209 (0.56047 0.69711 0)
# Probe 210 (0.56319 0.66734 0)
# Probe 211 (0.53914 0.68247 0)
# Probe 212 (0.54337 0.53174 0)
# Probe 213 (0.53367 0.70762 0)
# Probe 214 (0.51454 0.69335 0)
# Probe 215 (0.51938 0.66386 0)
# Probe 216 (0.49257 0.67652 0)
# Probe 217 (0.4896 0.70469 0)
# Probe 218 (0.46707 0.68793 0)
# Probe 219 (0.47012 0.66037 0)
# Probe 220 (0.44499 0.67096 0)
# Probe 221 (0.51544 0.51705 0)
# Probe 222 (0.44849 0.64395 0)
# Probe 223 (0.42354 0.65393 0)
# Probe 224 (0.42729 0.62744 0)
# Probe 225 (0.40213 0.63739 0)
# Probe 226 (0.40598 0.61087 0)
# Probe 227 (0.37973 0.62118 0)
# Probe 228 (0.38504 0.59399 0)
# Probe 229 (0.37285 0.64907 0)
# Probe 230 (0.48704 0.48572 0)
# Probe 231 (0.35851 0.60401 0)
# Probe 232 (0.36417 0.57354 0)
# Probe 233 (0.44069 0.699 0)
# Probe 234 (0.337 0.58624 0)
# Probe 235 (0.33931 0.55888 0)
# Probe 236 (0.31352 0.56956 0)
# Probe 237 (0.31783 0.54081 0)
# Probe 238 (0.30908 0.60407 0)
# Probe 239 (0.34524 0.53043 0)
# Probe 240 (0.32246 0.51217 0)
# Probe 241 (0.47222 0.44548 0)
# Probe 242 (0.29563 0.52281 0)
# Probe 243 (0.3007 0.49442 0)
# Probe 244 (0.32684 0.48425 0)
# Probe 245 (0.30596 0.46669 0)
# Probe 246 (0.33128 0.45757 0)
# Probe 247 (0.31053 0.43994 0)
# Probe 248 (0.47279 0.4141 0)
# Probe 249 (0.33569 0.43075 0)
# Probe 250 (0.31541 0.41358 0)
# Probe 251 (0.3405 0.40452 0)
# Probe 252 (0.32035 0.38784 0)
# Probe 253 (0.34585 0.37846 0)
# Probe 254 (0.32514 0.36192 0)
# Probe 255 (0.35125 0.35178 0)
# Probe 256 (0.48636 0.37392 0)
# Probe 257 (0.32626 0.33227 0)
# Probe 258 (0.35707 0.3226 0)
# Probe 259 (0.29801 0.37079 0)
# Probe 260 (0.28517 0.44877 0)
# Probe 261 (0.33439 0.30379 0)
# Probe 262 (0.36373 0.29303 0)
# Probe 263 (0.33927 0.27324 0)
# Probe 264 (0.30927 0.28462 0)
# Probe 265 (0.36901 0.26299 0)
# Probe 266 (0.5061 0.34921 0)
# Probe 267 (0.79089 0.6347 0)
# Probe 268 (0.47814 0.46639 0)
# Probe 269 (0.4997 0.50278 0)
# Probe 270 (0.56389 0.53788 0)
# Probe 271 (0.76848 0.55754 0)
# Probe 272 (0.47796 0.39349 0)
# Probe 273 (0.35431 0.44469 0)
# Probe 274 (0.41086 0.58545 0)
# Probe 275 (0.45261 0.61946 0)
# Probe 276 (0.3144 0.25205 0)
# Probe 277 (0.28157 0.26524 0)
# Probe 278 (0.60825 0.64846 0)
# Probe 279 (0.39288 0.28261 0)
# Probe 280 (0.3983 0.25368 0)
# Probe 281 (0.42041 0.2727 0)
# Probe 282 (0.42605 0.24499 0)
# Probe 283 (0.53343 0.33179 0)
# Probe 284 (0.72509 0.58894 0)
# Probe 285 (0.44661 0.26331 0)
# Probe 286 (0.45268 0.23777 0)
# Probe 287 (0.43845 0.21997 0)
# Probe 288 (0.4734 0.2585 0)
# Probe 289 (0.4784 0.23132 0)
# Probe 290 (0.49928 0.24897 0)
# Probe 291 (0.5642 0.32323 0)
# Probe 292 (0.50277 0.22194 0)
# Probe 293 (0.52142 0.23756 0)
# Probe 294 (0.52657 0.21236 0)
# Probe 295 (0.54568 0.22805 0)
# Probe 296 (0.55103 0.20359 0)
# Probe 297 (0.56907 0.21898 0)
# Probe 298 (0.60683 0.32496 0)
# Probe 299 (0.36376 0.3948 0)
# Probe 300 (0.28825 0.22831 0)
# Probe 301 (0.25367 0.24133 0)
# Probe 302 (0.37802 0.34229 0)
# Probe 303 (0.67896 0.6113 0)
# Probe 304 (0.5756 0.19481 0)
# Probe 305 (0.59488 0.21583 0)
# Probe 306 (0.60006 0.18606 0)
# Probe 307 (0.62155 0.20482 0)
# Probe 308 (0.61742 0.23124 0)
# Probe 309 (0.64067 0.22232 0)
# Probe 310 (0.63572 0.33704 0)
# Probe 311 (0.64844 0.19605 0)
# Probe 312 (0.66737 0.21985 0)
# Probe 313 (0.67637 0.18716 0)
# Probe 314 (0.69753 0.20911 0)
# Probe 315 (0.69102 0.23853 0)
# Probe 316 (0.67797 0.38366 0)
# Probe 317 (0.6603 0.35722 0)
# Probe 318 (0.71896 0.23013 0)
# Probe 319 (0.6853 0.40285 0)
# Probe 320 (0.68933 0.42429 0)
# Probe 321 (0.71223 0.25833 0)
# Probe 322 (0.73987 0.25054 0)
# Probe 323 (0.73219 0.27795 0)
# Probe 324 (0.74714 0.22065 0)
# Probe 325 (0.75997 0.27106 0)
# Probe 326 (0.74916 0.30116 0)
# Probe 327 (0.77975 0.29187 0)
# Probe 328 (0.7721 0.31986 0)
# Probe 329 (0.80057 0.31223 0)
# Probe 330 (0.79283 0.34077 0)
# Probe 331 (0.80615 0.28634 0)
# Probe 332 (0.82204 0.33312 0)
# Probe 333 (0.81313 0.362 0)
# Probe 334 (0.78166 0.36932 0)
# Probe 335 (0.44465 0.29093 0)
# Probe 336 (0.24761 0.27993 0)
# Probe 337 (0.63352 0.24677 0)
# Probe 338 (0.55466 0.17889 0)
# Probe 339 (0.27262 0.50426 0)
# Probe 340 (0.21855 0.25481 0)
# Probe 341 (0.21263 0.29375 0)
# Probe 342 (0.70791 0.18149 0)
# Probe 343 (0.25949 0.20391 0)
# Probe 344 (0.74775 0.32859 0)
# Probe 345 (0.80364 0.38963 0)
# Probe 346 (0.7775 0.39715 0)
# Probe 347 (0.26683 0.53386 0)
# Probe 348 (0.24237 0.51368 0)
# Probe 349 (0.23671 0.54617 0)
# Probe 350 (0.21079 0.52536 0)
# Probe 351 (0.20549 0.55959 0)
# Probe 352 (0.21686 0.49118 0)
# Probe 353 (0.61351 0.2549 0)
# Probe 354 (0.70581 0.28273 0)
# Probe 355 (0.65411 0.16748 0)
# Probe 356 (0.84811 0.60755 0)
# Probe 357 (0.49252 0.26842 0)
# Probe 358 (0.37542 0.23198 0)
# Probe 359 (0.29592 0.19082 0)
# Probe 360 (0.60609 0.72687 0)
# Probe 361 (0.58027 0.74014 0)
# Probe 362 (0.60571 0.75653 0)
# Probe 363 (0.57747 0.77068 0)
# Probe 364 (0.60519 0.78841 0)
# Probe 365 (0.57577 0.80374 0)
# Probe 366 (0.60421 0.82278 0)
# Probe 367 (0.63512 0.80599 0)
# Probe 368 (0.62886 0.26904 0)
# Probe 369 (0.54725 0.78485 0)
# Probe 370 (0.54506 0.81949 0)
# Probe 371 (0.51561 0.79965 0)
# Probe 372 (0.54164 0.25245 0)
# Probe 373 (0.79587 0.41557 0)
# Probe 374 (0.77061 0.42051 0)
# Probe 375 (0.82274 0.41053 0)
# Probe 376 (0.75435 0.40424 0)
# Probe 377 (0.74536 0.42522 0)
# Probe 378 (0.76271 0.44153 0)
# Probe 379 (0.50903 0.18991 0)
# Probe 380 (0.74166 0.44625 0)
# Probe 381 (0.75558 0.46142 0)
# Probe 382 (0.73555 0.46544 0)
# Probe 383 (0.18358 0.50331 0)
# Probe 384 (0.18926 0.46572 0)
# Probe 385 (0.84388 0.35458 0)
# Probe 386 (0.63431 0.84237 0)
# Probe 387 (0.66692 0.82417 0)
# Probe 388 (0.74881 0.48049 0)
# Probe 389 (0.73058 0.48474 0)
# Probe 390 (0.67822 0.47593 0)
# Probe 391 (0.2667 0.16702 0)
# Probe 392 (0.22849 0.17899 0)
# Probe 393 (0.77678 0.45805 0)
# Probe 394 (0.18179 0.26822 0)
# Probe 395 (0.17645 0.30794 0)
# Probe 396 (0.6101 0.27791 0)
# Probe 397 (0.58532 0.32175 0)
# Probe 398 (0.51305 0.83571 0)
# Probe 399 (0.4833 0.81691 0)
# Probe 400 (0.20741 0.33246 0)
# Probe 401 (0.17139 0.34714 0)
# Probe 402 (0.85321 0.32341 0)
# Probe 403 (0.15398 0.47725 0)
# Probe 404 (0.14846 0.5169 0)
# Probe 405 (0.87783 0.34697 0)
# Probe 406 (0.74252 0.4992 0)
# Probe 407 (0.72461 0.50332 0)
# Probe 408 (0.765 0.49619 0)
# Probe 409 (0.73344 0.40853 0)
# Probe 410 (0.73905 0.39051 0)
# Probe 411 (0.6259 0.28854 0)
# Probe 412 (0.64292 0.28313 0)
# Probe 413 (0.66662 0.78818 0)
# Probe 414 (0.69867 0.80619 0)
# Probe 415 (0.69942 0.76859 0)
# Probe 416 (0.73194 0.78569 0)
# Probe 417 (0.73111 0.82523 0)
# Probe 418 (0.76386 0.8059 0)
# Probe 419 (0.7651 0.76514 0)
# Probe 420 (0.79712 0.78596 0)
# Probe 421 (0.79733 0.74618 0)
# Probe 422 (0.83061 0.76591 0)
# Probe 423 (0.83182 0.80594 0)
# Probe 424 (0.83034 0.72628 0)
# Probe 425 (0.86511 0.74582 0)
# Probe 426 (0.23186 0.57882 0)
# Probe 427 (0.19991 0.59456 0)
# Probe 428 (0.22775 0.61494 0)
# Probe 429 (0.19436 0.63067 0)
# Probe 430 (0.22346 0.65366 0)
# Probe 431 (0.18826 0.66825 0)
# Probe 432 (0.21933 0.69253 0)
# Probe 433 (0.18216 0.70732 0)
# Probe 434 (0.21385 0.73176 0)
# Probe 435 (0.25102 0.71677 0)
# Probe 436 (0.24591 0.75587 0)
# Probe 437 (0.28279 0.74114 0)
# Probe 438 (0.20864 0.77204 0)
# Probe 439 (0.27776 0.77985 0)
# Probe 440 (0.3144 0.7652 0)
# Probe 441 (0.16619 0.60954 0)
# Probe 442 (0.30905 0.80561 0)
# Probe 443 (0.27063 0.82075 0)
# Probe 444 (0.34514 0.78889 0)
# Probe 445 (0.34072 0.83467 0)
# Probe 446 (0.29185 0.69861 0)
# Probe 447 (0.35028 0.75037 0)
# Probe 448 (0.37985 0.7733 0)
# Probe 449 (0.86451 0.70519 0)
# Probe 450 (0.76469 0.84562 0)
# Probe 451 (0.30379 0.15336 0)
# Probe 452 (0.27225 0.12512 0)
# Probe 453 (0.20326 0.36939 0)
# Probe 454 (0.47991 0.85297 0)
# Probe 455 (0.59497 0.26297 0)
# Probe 456 (0.59133 0.2821 0)
# Probe 457 (0.66619 0.86192 0)
# Probe 458 (0.7354 0.51733 0)
# Probe 459 (0.7172 0.52057 0)
# Probe 460 (0.7049 0.50686 0)
# Probe 461 (0.69882 0.52381 0)
# Probe 462 (0.72349 0.45083 0)
# Probe 463 (0.44872 0.83223 0)
# Probe 464 (0.44521 0.87055 0)
# Probe 465 (0.16784 0.38856 0)
# Probe 466 (0.13436 0.36244 0)
# Probe 467 (0.71036 0.53675 0)
# Probe 468 (0.69301 0.53964 0)
# Probe 469 (0.68151 0.52715 0)
# Probe 470 (0.67579 0.54207 0)
# Probe 471 (0.68636 0.55533 0)
# Probe 472 (0.66949 0.55675 0)
# Probe 473 (0.54204 0.85456 0)
# Probe 474 (0.91463 0.58036 0)
# Probe 475 (0.15065 0.68223 0)
# Probe 476 (0.14393 0.72302 0)
# Probe 477 (0.63814 0.30081 0)
# Probe 478 (0.65478 0.29693 0)
# Probe 479 (0.72035 0.39633 0)
# Probe 480 (0.72456 0.37869 0)
# Probe 481 (0.48247 0.78116 0)
# Probe 482 (0.65975 0.54397 0)
# Probe 483 (0.65333 0.55796 0)
# Probe 484 (0.6446 0.54562 0)
# Probe 485 (0.63746 0.55925 0)
# Probe 486 (0.6467 0.57234 0)
# Probe 487 (0.62996 0.57342 0)
# Probe 488 (0.63965 0.58702 0)
# Probe 489 (0.62262 0.58803 0)
# Probe 490 (0.61337 0.57419 0)
# Probe 491 (0.60588 0.58854 0)
# Probe 492 (0.59746 0.57483 0)
# Probe 493 (0.58963 0.58882 0)
# Probe 494 (0.58145 0.57539 0)
# Probe 495 (0.57369 0.58943 0)
# Probe 496 (0.56618 0.57637 0)
# Probe 497 (0.55765 0.58981 0)
# Probe 498 (0.55047 0.57426 0)
# Probe 499 (0.54148 0.59038 0)
# Probe 500 (0.53257 0.57622 0)
# Probe 501 (0.52442 0.59137 0)
# Probe 502 (0.51575 0.57677 0)
# Probe 503 (0.56617 0.60409 0)
# Probe 504 (0.53364 0.60658 0)
# Probe 505 (0.51562 0.60771 0)
# Probe 506 (0.52352 0.5625 0)
# Probe 507 (0.50762 0.56243 0)
# Probe 508 (0.49886 0.57695 0)
# Probe 509 (0.49086 0.5619 0)
# Probe 510 (0.48187 0.57651 0)
# Probe 511 (0.47385 0.56084 0)
# Probe 512 (0.48273 0.54678 0)
# Probe 513 (0.46566 0.54583 0)
# Probe 514 (0.47441 0.53215 0)
# Probe 515 (0.45808 0.53115 0)
# Probe 516 (0.46671 0.51751 0)
# Probe 517 (0.4506 0.51619 0)
# Probe 518 (0.43893 0.53252 0)
# Probe 519 (0.43377 0.51525 0)
# Probe 520 (0.44334 0.50085 0)
# Probe 521 (0.42631 0.49952 0)
# Probe 522 (0.43613 0.48653 0)
# Probe 523 (0.41922 0.48377 0)
# Probe 524 (0.43147 0.47023 0)
# Probe 525 (0.41581 0.514 0)
# Probe 526 (0.41212 0.4681 0)
# Probe 527 (0.4221 0.45367 0)
# Probe 528 (0.40145 0.48359 0)
# Probe 529 (0.40442 0.452 0)
# Probe 530 (0.4148 0.43783 0)
# Probe 531 (0.43155 0.43933 0)
# Probe 532 (0.42488 0.42424 0)
# Probe 533 (0.45451 0.56193 0)
# Probe 534 (0.63172 0.60259 0)
# Probe 535 (0.44073 0.42593 0)
# Probe 536 (0.43485 0.41062 0)
# Probe 537 (0.4181 0.40893 0)
# Probe 538 (0.42881 0.39492 0)
# Probe 539 (0.41168 0.39339 0)
# Probe 540 (0.42197 0.37967 0)
# Probe 541 (0.4396 0.38123 0)
# Probe 542 (0.43125 0.36383 0)
# Probe 543 (0.44975 0.36771 0)
# Probe 544 (0.44427 0.35185 0)
# Probe 545 (0.46188 0.35559 0)
# Probe 546 (0.45501 0.3386 0)
# Probe 547 (0.43883 0.33372 0)
# Probe 548 (0.47141 0.34141 0)
# Probe 549 (0.46541 0.32539 0)
# Probe 550 (0.48185 0.32811 0)
# Probe 551 (0.39739 0.43618 0)
# Probe 552 (0.60453 0.56135 0)
# Probe 553 (0.47615 0.31227 0)
# Probe 554 (0.49251 0.31533 0)
# Probe 555 (0.51581 0.54923 0)
# Probe 556 (0.45211 0.48902 0)
# Probe 557 (0.59803 0.60323 0)
# Probe 558 (0.14459 0.28267 0)
# Probe 559 (0.15028 0.24205 0)
# Probe 560 (0.79722 0.70742 0)
# Probe 561 (0.63196 0.88088 0)
# Probe 562 (0.129 0.40407 0)
# Probe 563 (0.48994 0.5328 0)
# Probe 564 (0.66431 0.27788 0)
# Probe 565 (0.649 0.3151 0)
# Probe 566 (0.66612 0.30998 0)
# Probe 567 (0.66261 0.32543 0)
# Probe 568 (0.67849 0.32121 0)
# Probe 569 (0.71622 0.41164 0)
# Probe 570 (0.26146 0.63499 0)
# Probe 571 (0.74199 0.37143 0)
# Probe 572 (0.70699 0.38402 0)
# Probe 573 (0.71144 0.36743 0)
# Probe 574 (0.67978 0.57224 0)
# Probe 575 (0.57743 0.27023 0)
# Probe 576 (0.57448 0.29003 0)
# Probe 577 (0.57477 0.56329 0)
# Probe 578 (0.44689 0.44031 0)
# Probe 579 (0.81388 0.43739 0)
# Probe 580 (0.84308 0.43205 0)
# Probe 581 (0.38398 0.73662 0)
# Probe 582 (0.35596 0.71516 0)
# Probe 583 (0.41299 0.75822 0)
# Probe 584 (0.11793 0.49238 0)
# Probe 585 (0.33277 0.17771 0)
# Probe 586 (0.34148 0.14237 0)
# Probe 587 (0.36974 0.16538 0)
# Probe 588 (0.3781 0.12967 0)
# Probe 589 (0.40915 0.15916 0)
# Probe 590 (0.41467 0.11716 0)
# Probe 591 (0.44314 0.14128 0)
# Probe 592 (0.22374 0.45696 0)
# Probe 593 (0.88729 0.31281 0)
# Probe 594 (0.91449 0.33888 0)
# Probe 595 (0.67311 0.33829 0)
# Probe 596 (0.69038 0.33269 0)
# Probe 597 (0.68632 0.34957 0)
# Probe 598 (0.40253 0.37743 0)
# Probe 599 (0.52532 0.62404 0)
# Probe 600 (0.5061 0.62601 0)
# Probe 601 (0.89998 0.72515 0)
# Probe 602 (0.66571 0.90167 0)
# Probe 603 (0.11198 0.5325 0)
# Probe 604 (0.38637 0.08662 0)
# Probe 605 (0.73058 0.86501 0)
# Probe 606 (0.76451 0.88613 0)
# Probe 607 (0.8006 0.8663 0)
# Probe 608 (0.41253 0.84818 0)
# Probe 609 (0.40901 0.88868 0)
# Probe 610 (0.90302 0.37631 0)
# Probe 611 (0.4502 0.41331 0)
# Probe 612 (0.23731 0.35568 0)
# Probe 613 (0.23336 0.39049 0)
# Probe 614 (0.45524 0.3823 0)
# Probe 615 (0.62133 0.3053 0)
# Probe 616 (0.09737 0.3782 0)
# Probe 617 (0.10129 0.3365 0)
# Probe 618 (0.86111 0.2878 0)
# Probe 619 (0.38921 0.7 0)
# Probe 620 (0.48967 0.59255 0)
# Probe 621 (0.63236 0.74148 0)
# Probe 622 (0.90314 0.76865 0)
# Probe 623 (0.53026 0.54963 0)
# Probe 624 (0.52327 0.53612 0)
# Probe 625 (0.58824 0.2999 0)
# Probe 626 (0.56113 0.27749 0)
# Probe 627 (0.55813 0.29429 0)
# Probe 628 (0.54539 0.28369 0)
# Probe 629 (0.54236 0.29971 0)
# Probe 630 (0.52996 0.28943 0)
# Probe 631 (0.52835 0.30765 0)
# Probe 632 (0.51611 0.29598 0)
# Probe 633 (0.40147 0.40857 0)
# Probe 634 (0.5438 0.62233 0)
# Probe 635 (0.85376 0.40462 0)
# Probe 636 (0.87536 0.4253 0)
# Probe 637 (0.65443 0.58834 0)
# Probe 638 (0.49856 0.33036 0)
# Probe 639 (0.69815 0.37126 0)
# Probe 640 (0.63047 0.54786 0)
# Probe 641 (0.63667 0.53431 0)
# Probe 642 (0.47732 0.35631 0)
# Probe 643 (0.69508 0.31655 0)
# Probe 644 (0.71015 0.32993 0)
# Probe 645 (0.1125 0.25685 0)
# Probe 646 (0.11758 0.21463 0)
# Probe 647 (0.15666 0.20028 0)
# Probe 648 (0.12417 0.17133 0)
# Probe 649 (0.16354 0.15937 0)
# Probe 650 (0.13086 0.12745 0)
# Probe 651 (0.11145 0.69861 0)
# Probe 652 (0.10381 0.73968 0)
# Probe 653 (0.11661 0.6564 0)
# Probe 654 (0.13882 0.76626 0)
# Probe 655 (0.89535 0.27615 0)
# Probe 656 (0.86859 0.25046 0)
# Probe 657 (0.90684 0.23791 0)
# Probe 658 (0.87682 0.21134 0)
# Probe 659 (0.83951 0.22274 0)
# Probe 660 (0.84686 0.18442 0)
# Probe 661 (0.81076 0.19684 0)
# Probe 662 (0.81734 0.15827 0)
# Probe 663 (0.85453 0.14379 0)
# Probe 664 (0.78169 0.17053 0)
# Probe 665 (0.78851 0.13192 0)
# Probe 666 (0.75239 0.14281 0)
# Probe 667 (0.75846 0.1063 0)
# Probe 668 (0.7225 0.11665 0)
# Probe 669 (0.72684 0.08058 0)
# Probe 670 (0.68995 0.09375 0)
# Probe 671 (0.28587 0.58214 0)
# Probe 672 (0.45026 0.10507 0)
# Probe 673 (0.47881 0.12929 0)
# Probe 674 (0.83316 0.45906 0)
# Probe 675 (0.50782 0.31902 0)
# Probe 676 (0.51252 0.33145 0)
# Probe 677 (0.47857 0.89221 0)
# Probe 678 (0.80319 0.23269 0)
# Probe 679 (0.63087 0.92006 0)
# Probe 680 (0.5948 0.89824 0)
# Probe 681 (0.69852 0.56894 0)
# Probe 682 (0.70559 0.40116 0)
# Probe 683 (0.17748 0.12091 0)
# Probe 684 (0.4871 0.29895 0)
# Probe 685 (0.51704 0.27856 0)
# Probe 686 (0.19735 0.43279 0)
# Probe 687 (0.47125 0.5889 0)
# Probe 688 (0.47525 0.60968 0)
# Probe 689 (0.38608 0.45164 0)
# Probe 690 (0.54024 0.31492 0)
# Probe 691 (0.89801 0.68203 0)
# Probe 692 (0.86419 0.66624 0)
# Probe 693 (0.89717 0.64345 0)
# Probe 694 (0.40661 0.7887 0)
# Probe 695 (0.46912 0.16372 0)
# Probe 696 (0.09214 0.77888 0)
# Probe 697 (0.11958 0.80806 0)
# Probe 698 (0.53633 0.64118 0)
# Probe 699 (0.55746 0.63996 0)
# Probe 700 (0.51123 0.53833 0)
# Probe 701 (0.72111 0.29901 0)
# Probe 702 (0.79797 0.08578 0)
# Probe 703 (0.50456 0.15439 0)
# Probe 704 (0.51333 0.11888 0)
# Probe 705 (0.7267 0.43428 0)
# Probe 706 (0.71091 0.43894 0)
# Probe 707 (0.70744 0.45364 0)
# Probe 708 (0.69729 0.44135 0)
# Probe 709 (0.55213 0.3087 0)
# Probe 710 (0.56703 0.3055 0)
# Probe 711 (0.37725 0.43373 0)
# Probe 712 (0.52213 0.32155 0)
# Probe 713 (0.57957 0.25147 0)
# Probe 714 (0.46574 0.3711 0)
# Probe 715 (0.4634 0.27849 0)
# Probe 716 (0.68996 0.58907 0)
# Probe 717 (0.94283 0.36607 0)
# Probe 718 (0.14302 0.55582 0)
# Probe 719 (0.10565 0.57317 0)
# Probe 720 (0.65756 0.33921 0)
# Probe 721 (0.48651 0.3444 0)
# Probe 722 (0.63221 0.31643 0)
# Probe 723 (0.07757 0.23634 0)
# Probe 724 (0.68669 0.26675 0)
# Probe 725 (0.39872 0.19027 0)
# Probe 726 (0.48988 0.35656 0)
# Probe 727 (0.68797 0.12716 0)
# Probe 728 (0.64924 0.11204 0)
# Probe 729 (0.66039 0.94579 0)
# Probe 730 (0.93454 0.74516 0)
# Probe 731 (0.71743 0.47072 0)
# Probe 732 (0.70025 0.46786 0)
# Probe 733 (0.70633 0.48075 0)
# Probe 734 (0.44153 0.17144 0)
# Probe 735 (0.4543 0.42789 0)
# Probe 736 (0.37432 0.86237 0)
# Probe 737 (0.37241 0.90756 0)
# Probe 738 (0.33077 0.88257 0)
# Probe 739 (0.4062 0.92705 0)
# Probe 740 (0.7464 0.57362 0)
# Probe 741 (0.72065 0.56637 0)
# Probe 742 (0.74196 0.54938 0)
# Probe 743 (0.76319 0.5347 0)
# Probe 744 (0.78756 0.53929 0)
# Probe 745 (0.06708 0.74873 0)
# Probe 746 (0.06719 0.35511 0)
# Probe 747 (0.60219 0.29408 0)
# Probe 748 (0.59961 0.30833 0)
# Probe 749 (0.69396 0.39225 0)
# Probe 750 (0.66828 0.25077 0)
# Probe 751 (0.41521 0.30132 0)
# Probe 752 (0.38905 0.31224 0)
# Probe 753 (0.4013 0.334 0)
# Probe 754 (0.58916 0.56024 0)
# Probe 755 (0.59787 0.54943 0)
# Probe 756 (0.61006 0.54904 0)
# Probe 757 (0.92067 0.45518 0)
# Probe 758 (0.88318 0.48023 0)
# Probe 759 (0.43879 0.45402 0)
# Probe 760 (0.45312 0.45323 0)
# Probe 761 (0.44688 0.4667 0)
# Probe 762 (0.46093 0.46542 0)
# Probe 763 (0.69499 0.4821 0)
# Probe 764 (0.64891 0.33025 0)
# Probe 765 (0.12347 0.44999 0)
# Probe 766 (0.08343 0.46261 0)
# Probe 767 (0.53916 0.56173 0)
# Probe 768 (0.54347 0.54922 0)
# Probe 769 (0.55341 0.55771 0)
# Probe 770 (0.82793 0.52283 0)
# Probe 771 (0.4421 0.77932 0)
# Probe 772 (0.44329 0.74329 0)
# Probe 773 (0.65128 0.53307 0)
# Probe 774 (0.66577 0.53009 0)
# Probe 775 (0.67072 0.51727 0)
# Probe 776 (0.68522 0.51028 0)
# Probe 777 (0.69176 0.4964 0)
# Probe 778 (0.44683 0.39672 0)
# Probe 779 (0.45885 0.40375 0)
# Probe 780 (0.48416 0.5178 0)
# Probe 781 (0.4762 0.50608 0)
# Probe 782 (0.49731 0.52073 0)
# Probe 783 (0.46133 0.50232 0)
# Probe 784 (0.46566 0.48777 0)
# Probe 785 (0.43405 0.60003 0)
# Probe 786 (0.43359 0.57619 0)
# Probe 787 (0.4157 0.56153 0)
# Probe 788 (0.39199 0.56837 0)
# Probe 789 (0.39838 0.54579 0)
# Probe 790 (0.37673 0.55078 0)
# Probe 791 (0.38296 0.52794 0)
# Probe 792 (0.77958 0.51517 0)
# Probe 793 (0.701 0.41661 0)
# Probe 794 (0.37229 0.36863 0)
# Probe 795 (0.36384 0.68022 0)
# Probe 796 (0.33059 0.693 0)
# Probe 797 (0.33981 0.66034 0)
# Probe 798 (0.7659 0.34541 0)
# Probe 799 (0.08756 0.14413 0)
# Probe 800 (0.09212 0.09156 0)
# Probe 801 (0.58747 0.65921 0)
# Probe 802 (0.59089 0.63606 0)
# Probe 803 (0.60841 0.62397 0)
# Probe 804 (0.63101 0.63478 0)
# Probe 805 (0.65628 0.62583 0)
# Probe 806 (0.4569 0.31008 0)
# Probe 807 (0.62091 0.55932 0)
# Probe 808 (0.66405 0.75037 0)
# Probe 809 (0.69804 0.73493 0)
# Probe 810 (0.35352 0.4713 0)
# Probe 811 (0.34762 0.5002 0)
# Probe 812 (0.36908 0.4897 0)
# Probe 813 (0.53899 0.14162 0)
# Probe 814 (0.54773 0.1084 0)
# Probe 815 (0.5736 0.12969 0)
# Probe 816 (0.58275 0.09747 0)
# Probe 817 (0.55525 0.07091 0)
# Probe 818 (0.60908 0.12087 0)
# Probe 819 (0.29998 0.84814 0)
# Probe 820 (0.25968 0.86018 0)
# Probe 821 (0.23046 0.8328 0)
# Probe 822 (0.21887 0.87295 0)
# Probe 823 (0.25369 0.90749 0)
# Probe 824 (0.19051 0.83996 0)
# Probe 825 (0.17661 0.87775 0)
# Probe 826 (0.58093 0.55121 0)
# Probe 827 (0.56724 0.55067 0)
# Probe 828 (0.45746 0.19417 0)
# Probe 829 (0.41902 0.54115 0)
# Probe 830 (0.24205 0.31833 0)
# Probe 831 (0.27464 0.34378 0)
# Probe 832 (0.28081 0.30387 0)
# Probe 833 (0.46085 0.44012 0)
# Probe 834 (0.55363 0.53489 0)
# Probe 835 (0.53342 0.52834 0)
# Probe 836 (0.47531 0.40353 0)
# Probe 837 (0.47202 0.42455 0)
# Probe 838 (0.49257 0.49456 0)
# Probe 839 (0.48215 0.47626 0)
# Probe 840 (0.47049 0.4746 0)
# Probe 841 (0.47175 0.43532 0)
# Probe 842 (0.47507 0.45603 0)
# Probe 843 (0.59561 0.53863 0)
# Probe 844 (0.57452 0.5397 0)
# Probe 845 (0.49984 0.54599 0)
# Probe 846 (0.60659 0.53473 0)
# Probe 847 (0.66032 0.50248 0)
# Probe 848 (0.5241 0.52329 0)
# Probe 849 (0.95674 0.32271 0)
# Probe 850 (0.6566 0.52002 0)
# Probe 851 (0.37322 0.04227 0)
# Probe 852 (0.42181 0.04344 0)
# Probe 853 (0.82974 0.68642 0)
# Probe 854 (0.79611 0.67052 0)
# Probe 855 (0.76744 0.69012 0)
# Probe 856 (0.7675 0.65919 0)
# Probe 857 (0.83084 0.64522 0)
# Probe 858 (0.76651 0.72629 0)
# Probe 859 (0.74141 0.70684 0)
# Probe 860 (0.73114 0.74379 0)
# Probe 861 (0.50585 0.51163 0)
# Probe 862 (0.61924 0.31958 0)
# Probe 863 (0.95244 0.2292 0)
# Probe 864 (0.52492 0.95835 0)
# Probe 865 (0.55857 0.91898 0)
# Probe 866 (0.80252 0.91486 0)
# Probe 867 (0.83577 0.88586 0)
# Probe 868 (0.52347 0.33607 0)
# Probe 869 (0.5427 0.32651 0)
# Probe 870 (0.59743 0.3208 0)
# Probe 871 (0.57484 0.32201 0)
# Probe 872 (0.67296 0.48572 0)
# Probe 873 (0.68217 0.46586 0)
# Probe 874 (0.48203 0.38366 0)
# Probe 875 (0.469 0.38499 0)
# Probe 876 (0.68211 0.39259 0)
# Probe 877 (0.67323 0.37421 0)
# Probe 878 (0.55367 0.32487 0)
# Probe 879 (0.41873 0.72 0)
# Probe 880 (0.64566 0.34263 0)
# Probe 881 (0.62678 0.32961 0)
# Probe 882 (0.66741 0.36447 0)
# Probe 883 (0.67824 0.36382 0)
# Probe 884 (0.68781 0.41374 0)
# Probe 885 (0.25651 0.67724 0)
# Probe 886 (0.28882 0.6594 0)
# Probe 887 (0.09039 0.42008 0)
# Probe 888 (0.72757 0.90767 0)
# Probe 889 (0.47136 0.63468 0)
# Probe 890 (0.49477 0.64697 0)
# Probe 891 (0.82487 0.04245 0)
# Probe 892 (0.85182 0.09188 0)
# Probe 893 (0.90177 0.08181 0)
# Probe 894 (0.80403 0.46427 0)
# Probe 895 (0.82322 0.48885 0)
# Probe 896 (0.79322 0.49054 0)
# Probe 897 (0.57953 0.31147 0)
# Probe 898 (0.67526 0.03481 0)
# Probe 899 (0.67856 0.49614 0)
# Probe 900 (0.46282 0.41732 0)
# Probe 901 (0.77729 0.95884 0)
# Probe 902 (0.74486 0.18256 0)
# Probe 903 (0.96467 0.62464 0)
# Probe 904 (0.27609 0.04245 0)
# Probe 905 (0.2969 0.08217 0)
# Probe 906 (0.51812 0.76559 0)
# Probe 907 (0.493 0.73934 0)
# Probe 908 (0.6188 0.0861 0)
# Probe 909 (0.95761 0.57294 0)
# Probe 910 (0.68443 0.28811 0)
# Probe 911 (0.2506 0.08225 0)
# Probe 912 (0.22363 0.11863 0)
# Probe 913 (0.22522 0.04064 0)
# Probe 914 (0.03888 0.57327 0)
# Probe 915 (0.04 0.62357 0)
# Probe 916 (0.27611 0.9569 0)
# Probe 917 (0.30126 0.91838 0)
# Probe 918 (0.22686 0.95564 0)
# Probe 919 (0.43711 0.31347 0)
# Probe 920 (0.5503 0.75322 0)
# Probe 921 (0.48831 0.5045 0)
# Probe 922 (0.28081 0.61166 0)
# Probe 923 (0.26677 0.37825 0)
# Probe 924 (0.26432 0.40718 0)
# Probe 925 (0.9578 0.12772 0)
# Probe 926 (0.91918 0.15113 0)
# Probe 927 (0.32289 0.21512 0)
# Probe 928 (0.43519 0.55296 0)
# Probe 929 (0.45385 0.58092 0)
# Probe 930 (0.87474 0.95931 0)
# Probe 931 (0.90057 0.91725 0)
# Probe 932 (0.95399 0.91931 0)
# Probe 933 (0.92462 0.87155 0)
# Probe 934 (0.48619 0.09531 0)
# Probe 935 (0.32065 0.72802 0)
# Probe 936 (0.24833 0.48195 0)
# Probe 937 (0.91613 0.19627 0)
# Probe 938 (0.12301 0.04326 0)
# Probe 939 (0.04329 0.87502 0)
# Probe 940 (0.08586 0.89968 0)
# Probe 941 (0.08125 0.95392 0)
# Probe 942 (0.12682 0.92879 0)
# Probe 943 (0.09255 0.84908 0)
# Probe 944 (0.35002 0.63308 0)
# Probe 945 (0.31841 0.63794 0)
# Probe 946 (0.52213 0.04123 0)
# Probe 947 (0.04138 0.47833 0)
# Probe 948 (0.13298 0.88684 0)
# Probe 949 (0.0429 0.12393 0)
# Probe 950 (0.62655 0.52793 0)
# Probe 951 (0.48226 0.49556 0)
# Probe 952 (0.63572 0.52296 0)
# Probe 953 (0.69978 0.42921 0)
# Probe 954 (0.15775 0.43036 0)
# Probe 955 (0.74065 0.35121 0)
# Probe 956 (0.5272 0.73409 0)
# Probe 957 (0.70031 0.35729 0)
# Probe 958 (0.71695 0.34935 0)
# Probe 959 (0.55458 0.54508 0)
# Probe 960 (0.38295 0.81666 0)
# Probe 961 (0.3754 0.46873 0)
# Probe 962 (0.18782 0.22845 0)
# Probe 963 (0.34076 0.08028 0)
# Probe 964 (0.68721 0.4459 0)
# Probe 965 (0.67226 0.35055 0)
# Probe 966 (0.06959 0.71164 0)
# Probe 967 (0.36117 0.19999 0)
# Probe 968 (0.46337 0.72048 0)
# Probe 969 (0.37351 0.95528 0)
# Probe 970 (0.35853 0.42013 0)