# Probe 0 (0 0 0)
# Probe 1 (1 0 0)
# Probe 2 (1 1 0)
# Probe 3 (0 1 0)
# Probe 4 (0.77 0.62 0)
# Probe 5 (0.67 0.52 0)
# Probe 6 (0.57 0.62 0)
# Probe 7 (0.67 0.72 0)
# Probe 8 (0.05 0 0)
# Probe 9 (0.1 0 0)
# Probe 10 (0.15 0 0)
# Probe 11 (0.2 0 0)
# Probe 12 (0.25 0 0)
# Probe 13 (0.3 0 0)
# Probe 14 (0.35 0 0)
# Probe 15 (0.4 0 0)
# Probe 16 (0.45 0 0)
# Probe 17 (0.5 0 0)
# Probe 18 (0.55 0 0)
# Probe 19 (0.6 0 0)
# Probe 20 (0.65 0 0)
# Probe 21 (0.7 0 0)
# Probe 22 (0.75 0 0)
# Probe 23 (0.8 0 0)
# Probe 24 (0.85 0 0)
# Probe 25 (0.9 0 0)
# Probe 26 (0.95 0 0)
# Probe 27 (1 0.05 0)
# Probe 28 (1 0.1 0)
# Probe 29 (1 0.15 0)
# Probe 30 (1 0.2 0)
# Probe 31 (1 0.25 0)
# Probe 32 (1 0.3 0)
# Probe 33 (1 0.35 0)
# Probe 34 (1 0.4 0)
# Probe 35 (1 0.45 0)
# Probe 36 (1 0.5 0)
# Probe 37 (1 0.55 0)
# Probe 38 (1 0.6 0)
# Probe 39 (1 0.65 0)
# Probe 40 (1 0.7 0)
# Probe 41 (1 0.75 0)
# Probe 42 (1 0.8 0)
# Probe 43 (1 0.85 0)
# Probe 44 (1 0.9 0)
# Probe 45 (1 0.95 0)
# Probe 46 (0.95 1 0)
# Probe 47 (0.9 1 0)
# Probe 48 (0.85 1 0)
# Probe 49 (0.8 1 0)
# Probe 50 (0.75 1 0)
# Probe 51 (0.7 1 0)
# Probe 52 (0.65 1 0)
# Probe 53 (0.6 1 0)
# Probe 54 (0.55 1 0)
# Probe 55 (0.5 1 0)
# Probe 56 (0.45 1 0)
# Probe 57 (0.4 1 0)
# Probe 58 (0.35 1 0)
# Probe 59 (0.3 1 0)
# Probe 60 (0.25 1 0)
# Probe 61 (0.2 1 0)
# Probe 62 (0.15 1 0)
# Probe 63 (0.1 1 0)
# Probe 64 (0.05 1 0)
# Probe 65 (0 0.95 0)
# Probe 66 (0 0.9 0)
# Probe 67 (0 0.85 0)
# Probe 68 (0 0.8 0)
# Probe 69 (0 0.75 0)
# Probe 70 (0 0.7 0)
# Probe 71 (0 0.65 0)
# Probe 72 (0 0.6 0)
# Probe 73 (0 0.55 0)
# Probe 74 (0 0.5 0)
# Probe 75 (0 0.45 0)
# Probe 76 (0 0.4 0)
# Probe 77 (0 0.35 0)
# Probe 78 (0 0.3 0)
# Probe 79 (0 0.25 0)
# Probe 80 (0 0.2 0)
# Probe 81 (0 0.15 0)
# Probe 82 (0 0.1 0)
# Probe 83 (0 0.05 0)
# Probe 84 (0.76952 0.6102 0)
# Probe 85 (0.76808 0.60049 0)
# Probe 86 (0.76569 0.59097 0)
# Probe 87 (0.76239 0.58173 0)
# Probe 88 (0.75819 0.57286 0)
# Probe 89 (0.75315 0.56444 0)
# Probe 90 (0.7473 0.55656 0)
# Probe 91 (0.74071 0.54929 0)
# Probe 92 (0.73344 0.5427 0)
# Probe 93 (0.72556 0.53685 0)
# Probe 94 (0.71714 0.53181 0)
# Probe 95 (0.70827 0.52761 0)
# Probe 96 (0.69903 0.52431 0)
# Probe 97 (0.68951 0.52192 0)
# Probe 98 (0.6798 0.52048 0)
# Probe 99 (0.6602 0.52048 0)
# Probe 100 (0.65049 0.52192 0)
# Probe 101 (0.64097 0.52431 0)
# Probe 102 (0.63173 0.52761 0)
# Probe 103 (0.62286 0.53181 0)
# Probe 104 (0.61444 0.53685 0)
# Probe 105 (0.60656 0.5427 0)
# Probe 106 (0.59929 0.54929 0)
# Probe 107 (0.5927 0.55656 0)
# Probe 108 (0.58685 0.56444 0)
# Probe 109 (0.58181 0.57286 0)
# Probe 110 (0.57761 0.58173 0)
# Probe 111 (0.57431 0.59097 0)
# Probe 112 (0.57192 0.60049 0)
# Probe 113 (0.57048 0.6102 0)
# Probe 114 (0.57048 0.6298 0)
# Probe 115 (0.57192 0.63951 0)
# Probe 116 (0.57431 0.64903 0)
# Probe 117 (0.57761 0.65827 0)
# Probe 118 (0.58181 0.66714 0)
# Probe 119 (0.58685 0.67556 0)
# Probe 120 (0.5927 0.68344 0)
# Probe 121 (0.59929 0.69071 0)
# Probe 122 (0.60656 0.6973 0)
# Probe 123 (0.61444 0.70315 0)
# Probe 124 (0.62286 0.70819 0)
# Probe 125 (0.63173 0.71239 0)
# Probe 126 (0.64097 0.71569 0)
# Probe 127 (0.65049 0.71808 0)
# Probe 128 (0.6602 0.71952 0)
# Probe 129 (0.6798 0.71952 0)
# Probe 130 (0.68951 0.71808 0)
# Probe 131 (0.69903 0.71569 0)
# Probe 132 (0.70827 0.71239 0)
# Probe 133 (0.71714 0.70819 0)
# Probe 134 (0.72556 0.70315 0)
# Probe 135 (0.73344 0.6973 0)
# Probe 136 (0.74071 0.69071 0)
# Probe 137 (0.7473 0.68344 0)
# Probe 138 (0.75315 0.67556 0)
# Probe 139 (0.75819 0.66714 0)
# Probe 140 (0.76239 0.65827 0)
# Probe 141 (0.76569 0.64903 0)
# Probe 142 (0.76808 0.63951 0)
# Probe 143 (0.76952 0.6298 0)
# Probe 144 (0.0433 0.375 0)
# Probe 145 (0.3766 0.04426 0)
# Probe 146 (0.0433 0.675 0)
# Probe 147 (0.53208 0.03875 0)
# Probe 148 (0.32379 0.95913 0)
# Probe 149 (0.7273 0.04603 0)
# Probe 150 (0.95648 0.32416 0)
# Probe 151 (0.04175 0.5287 0)
# Probe 152 (0.77784 0.60422 0)
# Probe 153 (0.77745 0.63631 0)
# Probe 154 (0.47737 0.96059 0)
# Probe 155 (0.82394 0.9588 0)
# Probe 156 (0.04207 0.23273 0)
# Probe 157 (0.96311 0.77498 0)
# Probe 158 (0.7675 0.66599 0)
# Probe 159 (0.6278 0.96398 0)
# Probe 160 (0.95876 0.4705 0)
# Probe 161 (0.76773 0.57421 0)
# Probe 162 (0.22426 0.04247 0)
# Probe 163 (0.0424 0.82624 0)
# Probe 164 (0.95144 0.17273 0)
# Probe 165 (0.95611 0.67787 0)
# Probe 166 (0.95431 0.5768 0)
# Probe 167 (0.17657 0.9594 0)
# Probe 168 (0.72504 0.9562 0)
# Probe 169 (0.67372 0.72801 0)
# Probe 170 (0.61837 0.04404 0)
# Probe 171 (0.82467 0.04413 0)
# Probe 172 (0.03947 0.12231 0)
# Probe 173 (0.95435 0.87375 0)
# Probe 174 (0.12422 0.04003 0)
# Probe 175 (0.0414 0.9247 0)
# Probe 176 (0.92553 0.04397 0)
# Probe 177 (0.92507 0.95112 0)
# Probe 178 (0.95879 0.62673 0)
# Probe 179 (0.92212 0.64975 0)
# Probe 180 (0.91688 0.68741 0)
# Probe 181 (0.88807 0.66586 0)
# Probe 182 (0.88582 0.69908 0)
# Probe 183 (0.73546 0.70773 0)
# Probe 184 (0.71634 0.71797 0)
# Probe 185 (0.69674 0.72525 0)
# Probe 186 (0.7503 0.69278 0)
# Probe 187 (0.89008 0.63143 0)
# Probe 188 (0.86051 0.68257 0)
# Probe 189 (0.85785 0.71088 0)
# Probe 190 (0.83617 0.69548 0)
# Probe 191 (0.8328 0.72176 0)
# Probe 192 (0.85437 0.73785 0)
# Probe 193 (0.82831 0.74888 0)
# Probe 194 (0.85108 0.76698 0)
# Probe 195 (0.82371 0.77714 0)
# Probe 196 (0.80152 0.75776 0)
# Probe 197 (0.79821 0.78713 0)
# Probe 198 (0.81898 0.80652 0)
# Probe 199 (0.79026 0.8159 0)
# Probe 200 (0.77067 0.79289 0)
# Probe 201 (0.76199 0.82392 0)
# Probe 202 (0.73866 0.80342 0)
# Probe 203 (0.73389 0.83231 0)
# Probe 204 (0.71158 0.8151 0)
# Probe 205 (0.70693 0.84113 0)
# Probe 206 (0.68607 0.82228 0)
# Probe 207 (0.8374 0.66844 0)
# Probe 208 (0.68039 0.84893 0)
# Probe 209 (0.66045 0.8297 0)
# Probe 210 (0.64395 0.72606 0)
# Probe 211 (0.66607 0.80428 0)
# Probe 212 (0.64209 0.81093 0)
# Probe 213 (0.63463 0.83675 0)
# Probe 214 (0.61579 0.81256 0)
# Probe 215 (0.61432 0.71257 0)
# Probe 216 (0.60781 0.84266 0)
# Probe 217 (0.5898 0.82221 0)
# Probe 218 (0.5938 0.79606 0)
# Probe 219 (0.57104 0.80265 0)
# Probe 220 (0.56357 0.82792 0)
# Probe 221 (0.54718 0.80736 0)
# Probe 222 (0.58951 0.6929 0)
# Probe 223 (0.55481 0.78393 0)
# Probe 224 (0.53193 0.78765 0)
# Probe 225 (0.53953 0.76662 0)
# Probe 226 (0.51684 0.76965 0)
# Probe 227 (0.52346 0.74797 0)
# Probe 228 (0.50075 0.75183 0)
# Probe 229 (0.49307 0.77377 0)
# Probe 230 (0.478 0.75469 0)
# Probe 231 (0.48837 0.73053 0)
# Probe 232 (0.4638 0.73484 0)
# Probe 233 (0.47274 0.71171 0)
# Probe 234 (0.44946 0.71564 0)
# Probe 235 (0.45914 0.69289 0)
# Probe 236 (0.43593 0.69672 0)
# Probe 237 (0.44501 0.67386 0)
# Probe 238 (0.41831 0.67907 0)
# Probe 239 (0.42981 0.65535 0)
# Probe 240 (0.40626 0.65778 0)
# Probe 241 (0.41578 0.63609 0)
# Probe 242 (0.39099 0.63794 0)
# Probe 243 (0.40135 0.61719 0)
# Probe 244 (0.37862 0.66362 0)
# Probe 245 (0.56257 0.60379 0)
# Probe 246 (0.37331 0.61741 0)
# Probe 247 (0.39011 0.59273 0)
# Probe 248 (0.35795 0.59488 0)
# Probe 249 (0.36997 0.56909 0)
# Probe 250 (0.39885 0.56439 0)
# Probe 251 (0.38138 0.54304 0)
# Probe 252 (0.40959 0.53913 0)
# Probe 253 (0.39305 0.51697 0)
# Probe 254 (0.42097 0.51445 0)
# Probe 255 (0.40477 0.49132 0)
# Probe 256 (0.43323 0.4888 0)
# Probe 257 (0.41665 0.46555 0)
# Probe 258 (0.44498 0.46253 0)
# Probe 259 (0.42849 0.43954 0)
# Probe 260 (0.45607 0.43611 0)
# Probe 261 (0.59767 0.53988 0)
# Probe 262 (0.44026 0.41331 0)
# Probe 263 (0.46676 0.40968 0)
# Probe 264 (0.41125 0.41601 0)
# Probe 265 (0.57736 0.56447 0)
# Probe 266 (0.45217 0.38683 0)
# Probe 267 (0.48004 0.38388 0)
# Probe 268 (0.36828 0.52168 0)
# Probe 269 (0.46443 0.35977 0)
# Probe 270 (0.4944 0.35742 0)
# Probe 271 (0.51104 0.38361 0)
# Probe 272 (0.62366 0.52203 0)
# Probe 273 (0.52414 0.35584 0)
# Probe 274 (0.42512 0.7188 0)
# Probe 275 (0.54141 0.37867 0)
# Probe 276 (0.55287 0.35379 0)
# Probe 277 (0.57015 0.37992 0)
# Probe 278 (0.58045 0.35271 0)
# Probe 279 (0.59542 0.37438 0)
# Probe 280 (0.60679 0.35048 0)
# Probe 281 (0.6543 0.51244 0)
# Probe 282 (0.62185 0.37185 0)
# Probe 283 (0.63263 0.34875 0)
# Probe 284 (0.64821 0.37036 0)
# Probe 285 (0.72565 0.52661 0)
# Probe 286 (0.69669 0.51587 0)
# Probe 287 (0.65974 0.34588 0)
# Probe 288 (0.67568 0.36874 0)
# Probe 289 (0.68759 0.34324 0)
# Probe 290 (0.70424 0.367 0)
# Probe 291 (0.56225 0.63613 0)
# Probe 292 (0.59214 0.32784 0)
# Probe 293 (0.66707 0.3151 0)
# Probe 294 (0.4773 0.33181 0)
# Probe 295 (0.44554 0.33565 0)
# Probe 296 (0.70103 0.31519 0)
# Probe 297 (0.45949 0.30461 0)
# Probe 298 (0.42517 0.30928 0)
# Probe 299 (0.57203 0.66634 0)
# Probe 300 (0.55441 0.40083 0)
# Probe 301 (0.46817 0.77804 0)
# Probe 302 (0.47116 0.45506 0)
# Probe 303 (0.43966 0.63526 0)
# Probe 304 (0.43594 0.53658 0)
# Probe 305 (0.68372 0.28761 0)
# Probe 306 (0.71701 0.28567 0)
# Probe 307 (0.56833 0.58348 0)
# Probe 308 (0.67532 0.51175 0)
# Probe 309 (0.43945 0.27679 0)
# Probe 310 (0.40452 0.28018 0)
# Probe 311 (0.74293 0.53969 0)
# Probe 312 (0.75614 0.55608 0)
# Probe 313 (0.63672 0.3918 0)
# Probe 314 (0.47407 0.27367 0)
# Probe 315 (0.45384 0.24446 0)
# Probe 316 (0.49034 0.24144 0)
# Probe 317 (0.68974 0.39474 0)
# Probe 318 (0.71869 0.39174 0)
# Probe 319 (0.69745 0.2572 0)
# Probe 320 (0.73274 0.25395 0)
# Probe 321 (0.75292 0.28179 0)
# Probe 322 (0.48022 0.69057 0)
# Probe 323 (0.70777 0.41538 0)
# Probe 324 (0.73249 0.41272 0)
# Probe 325 (0.76999 0.25068 0)
# Probe 326 (0.39021 0.31374 0)
# Probe 327 (0.36881 0.28396 0)
# Probe 328 (0.35461 0.31712 0)
# Probe 329 (0.33218 0.28759 0)
# Probe 330 (0.31718 0.32291 0)
# Probe 331 (0.29461 0.29163 0)
# Probe 332 (0.27955 0.32728 0)
# Probe 333 (0.30986 0.25603 0)
# Probe 334 (0.27131 0.2594 0)
# Probe 335 (0.74647 0.39047 0)
# Probe 336 (0.75868 0.41725 0)
# Probe 337 (0.77518 0.38881 0)
# Probe 338 (0.79024 0.41388 0)
# Probe 339 (0.777 0.44116 0)
# Probe 340 (0.66388 0.2598 0)
# Probe 341 (0.6766 0.2284 0)
# Probe 342 (0.30276 0.35781 0)
# Probe 343 (0.26457 0.36266 0)
# Probe 344 (0.46897 0.21111 0)
# Probe 345 (0.50594 0.20818 0)
# Probe 346 (0.80518 0.43905 0)
# Probe 347 (0.79204 0.46419 0)
# Probe 348 (0.80612 0.38634 0)
# Probe 349 (0.2879 0.3935 0)
# Probe 350 (0.24992 0.39922 0)
# Probe 351 (0.22576 0.36753 0)
# Probe 352 (0.21096 0.40418 0)
# Probe 353 (0.23577 0.43509 0)
# Probe 354 (0.71957 0.43428 0)
# Probe 355 (0.69817 0.43702 0)
# Probe 356 (0.28505 0.22379 0)
# Probe 357 (0.24578 0.22662 0)
# Probe 358 (0.81896 0.46368 0)
# Probe 359 (0.80292 0.48956 0)
# Probe 360 (0.83187 0.48738 0)
# Probe 361 (0.81889 0.51019 0)
# Probe 362 (0.53257 0.83207 0)
# Probe 363 (0.34005 0.57185 0)
# Probe 364 (0.32804 0.59903 0)
# Probe 365 (0.30919 0.57474 0)
# Probe 366 (0.29721 0.60417 0)
# Probe 367 (0.27718 0.57866 0)
# Probe 368 (0.2639 0.60935 0)
# Probe 369 (0.24328 0.58428 0)
# Probe 370 (0.22899 0.61482 0)
# Probe 371 (0.25128 0.64252 0)
# Probe 372 (0.21526 0.64824 0)
# Probe 373 (0.23853 0.67739 0)
# Probe 374 (0.20063 0.68343 0)
# Probe 375 (0.22499 0.71376 0)
# Probe 376 (0.1932 0.61938 0)
# Probe 377 (0.26325 0.70815 0)
# Probe 378 (0.24943 0.74379 0)
# Probe 379 (0.28775 0.73827 0)
# Probe 380 (0.2741 0.77353 0)
# Probe 381 (0.23588 0.78056 0)
# Probe 382 (0.31162 0.76715 0)
# Probe 383 (0.18535 0.72019 0)
# Probe 384 (0.74817 0.21943 0)
# Probe 385 (0.7873 0.216 0)
# Probe 386 (0.83096 0.44044 0)
# Probe 387 (0.19631 0.44094 0)
# Probe 388 (0.55401 0.85515 0)
# Probe 389 (0.43185 0.21489 0)
# Probe 390 (0.56253 0.76181 0)
# Probe 391 (0.38681 0.46822 0)
# Probe 392 (0.807 0.25237 0)
# Probe 393 (0.84544 0.50999 0)
# Probe 394 (0.83247 0.53238 0)
# Probe 395 (0.44724 0.1796 0)
# Probe 396 (0.29843 0.80302 0)
# Probe 397 (0.33581 0.7966 0)
# Probe 398 (0.64082 0.23253 0)
# Probe 399 (0.65513 0.19844 0)
# Probe 400 (0.40852 0.18298 0)
# Probe 401 (0.29113 0.54945 0)
# Probe 402 (0.70944 0.45438 0)
# Probe 403 (0.68943 0.45656 0)
# Probe 404 (0.77819 0.4858 0)
# Probe 405 (0.18626 0.37209 0)
# Probe 406 (0.52726 0.23872 0)
# Probe 407 (0.64902 0.7878 0)
# Probe 408 (0.76417 0.18272 0)
# Probe 409 (0.80573 0.17918 0)
# Probe 410 (0.74842 0.7811 0)
# Probe 411 (0.81544 0.70568 0)
# Probe 412 (0.66953 0.78187 0)
# Probe 413 (0.26246 0.18851 0)
# Probe 414 (0.21952 0.1929 0)
# Probe 415 (0.20457 0.2312 0)
# Probe 416 (0.75364 0.84934 0)
# Probe 417 (0.81331 0.83788 0)
# Probe 418 (0.54311 0.20567 0)
# Probe 419 (0.17558 0.19787 0)
# Probe 420 (0.85879 0.53288 0)
# Probe 421 (0.84552 0.55643 0)
# Probe 422 (0.67809 0.4399 0)
# Probe 423 (0.67127 0.4606 0)
# Probe 424 (0.659 0.44316 0)
# Probe 425 (0.65225 0.4602 0)
# Probe 426 (0.64104 0.44552 0)
# Probe 427 (0.63426 0.46189 0)
# Probe 428 (0.62327 0.44768 0)
# Probe 429 (0.61649 0.46392 0)
# Probe 430 (0.60549 0.44998 0)
# Probe 431 (0.59863 0.46628 0)
# Probe 432 (0.58748 0.45211 0)
# Probe 433 (0.5807 0.46881 0)
# Probe 434 (0.59155 0.48245 0)
# Probe 435 (0.57414 0.4851 0)
# Probe 436 (0.56282 0.47129 0)
# Probe 437 (0.55641 0.48836 0)
# Probe 438 (0.54423 0.4742 0)
# Probe 439 (0.53798 0.49209 0)
# Probe 440 (0.55265 0.50665 0)
# Probe 441 (0.53214 0.50996 0)
# Probe 442 (0.54415 0.52341 0)
# Probe 443 (0.5267 0.5268 0)
# Probe 444 (0.53803 0.53963 0)
# Probe 445 (0.52104 0.54336 0)
# Probe 446 (0.50904 0.53006 0)
# Probe 447 (0.50367 0.54748 0)
# Probe 448 (0.51817 0.56112 0)
# Probe 449 (0.49886 0.56498 0)
# Probe 450 (0.5111 0.57801 0)
# Probe 451 (0.49355 0.58229 0)
# Probe 452 (0.50615 0.59483 0)
# Probe 453 (0.62689 0.47786 0)
# Probe 454 (0.52278 0.17375 0)
# Probe 455 (0.5848 0.49779 0)
# Probe 456 (0.52453 0.86196 0)
# Probe 457 (0.844 0.82792 0)
# Probe 458 (0.5605 0.17106 0)
# Probe 459 (0.32272 0.83267 0)
# Probe 460 (0.35992 0.82553 0)
# Probe 461 (0.28402 0.83969 0)
# Probe 462 (0.22101 0.47175 0)
# Probe 463 (0.1815 0.47836 0)
# Probe 464 (0.15597 0.44644 0)
# Probe 465 (0.80743 0.53359 0)
# Probe 466 (0.31556 0.627 0)
# Probe 467 (0.52204 0.59112 0)
# Probe 468 (0.51791 0.60709 0)
# Probe 469 (0.50177 0.61139 0)
# Probe 470 (0.51682 0.62435 0)
# Probe 471 (0.4983 0.62813 0)
# Probe 472 (0.51093 0.64043 0)
# Probe 473 (0.8614 0.4866 0)
# Probe 474 (0.55046 0.89076 0)
# Probe 475 (0.15927 0.23819 0)
# Probe 476 (0.53729 0.32941 0)
# Probe 477 (0.25922 0.46634 0)
# Probe 478 (0.7011 0.47213 0)
# Probe 479 (0.71913 0.47117 0)
# Probe 480 (0.37237 0.79131 0)
# Probe 481 (0.39532 0.81907 0)
# Probe 482 (0.38357 0.85344 0)
# Probe 483 (0.41779 0.84556 0)
# Probe 484 (0.66109 0.47442 0)
# Probe 485 (0.32462 0.73277 0)
# Probe 486 (0.53046 0.61621 0)
# Probe 487 (0.16246 0.68914 0)
# Probe 488 (0.14457 0.72632 0)
# Probe 489 (0.55402 0.53642 0)
# Probe 490 (0.54861 0.55103 0)
# Probe 491 (0.42459 0.14664 0)
# Probe 492 (0.38387 0.15072 0)
# Probe 493 (0.52007 0.49562 0)
# Probe 494 (0.49372 0.64486 0)
# Probe 495 (0.40817 0.88072 0)
# Probe 496 (0.59453 0.43442 0)
# Probe 497 (0.65403 0.76734 0)
# Probe 498 (0.60066 0.49562 0)
# Probe 499 (0.50636 0.65684 0)
# Probe 500 (0.52276 0.65215 0)
# Probe 501 (0.5191 0.66788 0)
# Probe 502 (0.53439 0.66321 0)
# Probe 503 (0.531 0.67851 0)
# Probe 504 (0.62662 0.8643 0)
# Probe 505 (0.48531 0.61615 0)
# Probe 506 (0.32458 0.38853 0)
# Probe 507 (0.48496 0.79848 0)
# Probe 508 (0.55063 0.4563 0)
# Probe 509 (0.5309 0.45905 0)
# Probe 510 (0.83871 0.86087 0)
# Probe 511 (0.19307 0.15637 0)
# Probe 512 (0.49137 0.53384 0)
# Probe 513 (0.78193 0.14627 0)
# Probe 514 (0.74051 0.14769 0)
# Probe 515 (0.82536 0.14274 0)
# Probe 516 (0.48016 0.56888 0)
# Probe 517 (0.63455 0.77244 0)
# Probe 518 (0.87314 0.55649 0)
# Probe 519 (0.78932 0.3593 0)
# Probe 520 (0.82356 0.35791 0)
# Probe 521 (0.70179 0.87026 0)
# Probe 522 (0.88634 0.53002 0)
# Probe 523 (0.4447 0.87385 0)
# Probe 524 (0.14095 0.48489 0)
# Probe 525 (0.16701 0.51698 0)
# Probe 526 (0.11424 0.45216 0)
# Probe 527 (0.85431 0.1828 0)
# Probe 528 (0.87023 0.13744 0)
# Probe 529 (0.67207 0.76157 0)
# Probe 530 (0.6863 0.77315 0)
# Probe 531 (0.20158 0.3346 0)
# Probe 532 (0.16036 0.33927 0)
# Probe 533 (0.37567 0.34824 0)
# Probe 534 (0.5945 0.50944 0)
# Probe 535 (0.58005 0.51093 0)
# Probe 536 (0.14747 0.16151 0)
# Probe 537 (0.62673 0.26812 0)
# Probe 538 (0.71063 0.48706 0)
# Probe 539 (0.72715 0.48682 0)
# Probe 540 (0.7368 0.46971 0)
# Probe 541 (0.69493 0.48805 0)
# Probe 542 (0.66552 0.42509 0)
# Probe 543 (0.31073 0.42186 0)
# Probe 544 (0.68817 0.75594 0)
# Probe 545 (0.70253 0.76656 0)
# Probe 546 (0.53946 0.13764 0)
# Probe 547 (0.57827 0.13579 0)
# Probe 548 (0.87859 0.75688 0)
# Probe 549 (0.32743 0.21911 0)
# Probe 550 (0.53803 0.64767 0)
# Probe 551 (0.80077 0.32257 0)
# Probe 552 (0.8399 0.32533 0)
# Probe 553 (0.86012 0.35783 0)
# Probe 554 (0.5455 0.6721 0)
# Probe 555 (0.54495 0.6872 0)
# Probe 556 (0.52763 0.69392 0)
# Probe 557 (0.54019 0.70458 0)
# Probe 558 (0.55528 0.69937 0)
# Probe 559 (0.55235 0.71532 0)
# Probe 560 (0.56742 0.71022 0)
# Probe 561 (0.52361 0.71078 0)
# Probe 562 (0.8591 0.58018 0)
# Probe 563 (0.83196 0.58016 0)
# Probe 564 (0.8443 0.60134 0)
# Probe 565 (0.81872 0.60274 0)
# Probe 566 (0.80964 0.58387 0)
# Probe 567 (0.83142 0.62074 0)
# Probe 568 (0.81118 0.62245 0)
# Probe 569 (0.65954 0.75052 0)
# Probe 570 (0.40686 0.7866 0)
# Probe 571 (0.38867 0.76142 0)
# Probe 572 (0.56453 0.72569 0)
# Probe 573 (0.5795 0.72056 0)
# Probe 574 (0.70372 0.74786 0)
# Probe 575 (0.87901 0.84544 0)
# Probe 576 (0.86716 0.8872 0)
# Probe 577 (0.12613 0.52398 0)
# Probe 578 (0.30964 0.86971 0)
# Probe 579 (0.2697 0.87972 0)
# Probe 580 (0.34562 0.41645 0)
# Probe 581 (0.33309 0.44994 0)
# Probe 582 (0.87839 0.32409 0)
# Probe 583 (0.88604 0.58074 0)
# Probe 584 (0.5374 0.43996 0)
# Probe 585 (0.51638 0.44252 0)
# Probe 586 (0.71895 0.50055 0)
# Probe 587 (0.73383 0.50132 0)
# Probe 588 (0.1708 0.75957 0)
# Probe 589 (0.12814 0.76625 0)
# Probe 590 (0.1544 0.79875 0)
# Probe 591 (0.5137 0.89333 0)
# Probe 592 (0.13208 0.41462 0)
# Probe 593 (0.56446 0.23669 0)
# Probe 594 (0.47472 0.58735 0)
# Probe 595 (0.46053 0.57318 0)
# Probe 596 (0.45474 0.59307 0)
# Probe 597 (0.46406 0.14342 0)
# Probe 598 (0.44137 0.10863 0)
# Probe 599 (0.24504 0.50082 0)
# Probe 600 (0.89722 0.357 0)
# Probe 601 (0.87947 0.39132 0)
# Probe 602 (0.57674 0.73579 0)
# Probe 603 (0.59129 0.73044 0)
# Probe 604 (0.58889 0.74599 0)
# Probe 605 (0.60372 0.74059 0)
# Probe 606 (0.60119 0.75653 0)
# Probe 607 (0.91732 0.3875 0)
# Probe 608 (0.89963 0.4252 0)
# Probe 609 (0.53021 0.91943 0)
# Probe 610 (0.38306 0.25122 0)
# Probe 611 (0.80251 0.86911 0)
# Probe 612 (0.54784 0.26802 0)
# Probe 613 (0.36869 0.88671 0)
# Probe 614 (0.15148 0.55667 0)
# Probe 615 (0.11071 0.56348 0)
# Probe 616 (0.51083 0.46317 0)
# Probe 617 (0.24416 0.84657 0)
# Probe 618 (0.22679 0.88511 0)
# Probe 619 (0.63 0.43072 0)
# Probe 620 (0.45753 0.80486 0)
# Probe 621 (0.47842 0.82561 0)
# Probe 622 (0.09961 0.72998 0)
# Probe 623 (0.16665 0.11878 0)
# Probe 624 (0.39546 0.91837 0)
# Probe 625 (0.57562 0.43646 0)
# Probe 626 (0.67319 0.87908 0)
# Probe 627 (0.59913 0.87166 0)
# Probe 628 (0.4667 0.55319 0)
# Probe 629 (0.85863 0.29157 0)
# Probe 630 (0.8965 0.28971 0)
# Probe 631 (0.87605 0.25363 0)
# Probe 632 (0.91907 0.25183 0)
# Probe 633 (0.60828 0.50729 0)
# Probe 634 (0.60299 0.52045 0)
# Probe 635 (0.56348 0.54833 0)
# Probe 636 (0.56859 0.53532 0)
# Probe 637 (0.55861 0.56171 0)
# Probe 638 (0.54493 0.56434 0)
# Probe 639 (0.4394 0.57772 0)
# Probe 640 (0.2516 0.92012 0)
# Probe 641 (0.82067 0.63793 0)
# Probe 642 (0.8004 0.63787 0)
# Probe 643 (0.81035 0.653 0)
# Probe 644 (0.79365 0.6538 0)
# Probe 645 (0.80258 0.66772 0)
# Probe 646 (0.79296 0.6222 0)
# Probe 647 (0.28396 0.49253 0)
# Probe 648 (0.87627 0.78691 0)
# Probe 649 (0.48183 0.10708 0)
# Probe 650 (0.59517 0.71505 0)
# Probe 651 (0.71864 0.76003 0)
# Probe 652 (0.72067 0.74068 0)
# Probe 653 (0.57831 0.54464 0)
# Probe 654 (0.49627 0.51553 0)
# Probe 655 (0.47837 0.52056 0)
# Probe 656 (0.48214 0.49889 0)
# Probe 657 (0.61637 0.75065 0)
# Probe 658 (0.61883 0.73487 0)
# Probe 659 (0.63233 0.74504 0)
# Probe 660 (0.61865 0.20164 0)
# Probe 661 (0.63455 0.16702 0)
# Probe 662 (0.66853 0.15866 0)
# Probe 663 (0.64897 0.13008 0)
# Probe 664 (0.56936 0.69605 0)
# Probe 665 (0.76213 0.10918 0)
# Probe 666 (0.90943 0.72021 0)
# Probe 667 (0.71331 0.11354 0)
# Probe 668 (0.61987 0.89451 0)
# Probe 669 (0.13529 0.59599 0)
# Probe 670 (0.09482 0.60362 0)
# Probe 671 (0.48934 0.66169 0)
# Probe 672 (0.47499 0.64907 0)
# Probe 673 (0.21669 0.12045 0)
# Probe 674 (0.52401 0.42232 0)
# Probe 675 (0.6964 0.90142 0)
# Probe 676 (0.11534 0.12089 0)
# Probe 677 (0.10008 0.16782 0)
# Probe 678 (0.58267 0.53233 0)
# Probe 679 (0.71634 0.77748 0)
# Probe 680 (0.19409 0.55033 0)
# Probe 681 (0.72816 0.89249 0)
# Probe 682 (0.84174 0.6416 0)
# Probe 683 (0.73438 0.75291 0)
# Probe 684 (0.73728 0.73648 0)
# Probe 685 (0.75072 0.74743 0)
# Probe 686 (0.75373 0.73028 0)
# Probe 687 (0.76771 0.74081 0)
# Probe 688 (0.77015 0.72321 0)
# Probe 689 (0.20178 0.8527 0)
# Probe 690 (0.61427 0.4956 0)
# Probe 691 (0.12018 0.63187 0)
# Probe 692 (0.79961 0.59842 0)
# Probe 693 (0.79335 0.58408 0)
# Probe 694 (0.79935 0.56948 0)
# Probe 695 (0.54946 0.73134 0)
# Probe 696 (0.55845 0.10192 0)
# Probe 697 (0.11261 0.80627 0)
# Probe 698 (0.13857 0.8383 0)
# Probe 699 (0.76774 0.46609 0)
# Probe 700 (0.58279 0.41796 0)
# Probe 701 (0.60346 0.41546 0)
# Probe 702 (0.46004 0.07292 0)
# Probe 703 (0.65553 0.9084 0)
# Probe 704 (0.51063 0.69951 0)
# Probe 705 (0.17669 0.30042 0)
# Probe 706 (0.13364 0.30674 0)
# Probe 707 (0.11519 0.34804 0)
# Probe 708 (0.08877 0.31119 0)
# Probe 709 (0.21751 0.29906 0)
# Probe 710 (0.10647 0.27328 0)
# Probe 711 (0.76617 0.33581 0)
# Probe 712 (0.75628 0.71276 0)
# Probe 713 (0.77247 0.70565 0)
# Probe 714 (0.58643 0.89794 0)
# Probe 715 (0.78689 0.71682 0)
# Probe 716 (0.78692 0.6964 0)
# Probe 717 (0.7711 0.68822 0)
# Probe 718 (0.18264 0.89307 0)
# Probe 719 (0.43382 0.59799 0)
# Probe 720 (0.75963 0.48684 0)
# Probe 721 (0.76575 0.50243 0)
# Probe 722 (0.795 0.51453 0)
# Probe 723 (0.78596 0.5314 0)
# Probe 724 (0.67513 0.74684 0)
# Probe 725 (0.89594 0.21402 0)
# Probe 726 (0.55298 0.57546 0)
# Probe 727 (0.54104 0.57613 0)
# Probe 728 (0.54891 0.58758 0)
# Probe 729 (0.62108 0.50549 0)
# Probe 730 (0.76785 0.76955 0)
# Probe 731 (0.0871 0.41672 0)
# Probe 732 (0.0749 0.46175 0)
# Probe 733 (0.42306 0.7599 0)
# Probe 734 (0.49837 0.86984 0)
# Probe 735 (0.82265 0.55144 0)
# Probe 736 (0.68836 0.74186 0)
# Probe 737 (0.6039 0.09545 0)
# Probe 738 (0.78535 0.66714 0)
# Probe 739 (0.75168 0.45014 0)
# Probe 740 (0.52711 0.63781 0)
# Probe 741 (0.54053 0.63558 0)
# Probe 742 (0.58245 0.70419 0)
# Probe 743 (0.50254 0.42545 0)
# Probe 744 (0.93789 0.42351 0)
# Probe 745 (0.5832 0.26641 0)
# Probe 746 (0.56766 0.29733 0)
# Probe 747 (0.70359 0.50109 0)
# Probe 748 (0.71227 0.51116 0)
# Probe 749 (0.69011 0.50056 0)
# Probe 750 (0.67831 0.49066 0)
# Probe 751 (0.68477 0.47399 0)
# Probe 752 (0.44582 0.50995 0)
# Probe 753 (0.57711 0.77872 0)
# Probe 754 (0.60487 0.72657 0)
# Probe 755 (0.57062 0.06333 0)
# Probe 756 (0.08776 0.84862 0)
# Probe 757 (0.13081 0.88393 0)
# Probe 758 (0.54865 0.65854 0)
# Probe 759 (0.55244 0.6445 0)
# Probe 760 (0.55885 0.65422 0)
# Probe 761 (0.62786 0.49252 0)
# Probe 762 (0.63441 0.50606 0)
# Probe 763 (0.64239 0.49511 0)
# Probe 764 (0.64489 0.47466 0)
# Probe 765 (0.47695 0.89326 0)
# Probe 766 (0.90478 0.77463 0)
# Probe 767 (0.90213 0.81026 0)
# Probe 768 (0.8419 0.09653 0)
# Probe 769 (0.89065 0.09555 0)
# Probe 770 (0.56067 0.68558 0)
# Probe 771 (0.5728 0.68483 0)
# Probe 772 (0.4699 0.6712 0)
# Probe 773 (0.36005 0.38354 0)
# Probe 774 (0.66444 0.73657 0)
# Probe 775 (0.64777 0.73887 0)
# Probe 776 (0.95324 0.52527 0)
# Probe 777 (0.92717 0.49481 0)
# Probe 778 (0.6148 0.76644 0)
# Probe 779 (0.36346 0.19038 0)
# Probe 780 (0.34186 0.1548 0)
# Probe 781 (0.35904 0.117 0)
# Probe 782 (0.31585 0.12048 0)
# Probe 783 (0.3405 0.08088 0)
# Probe 784 (0.29363 0.08315 0)
# Probe 785 (0.26885 0.12324 0)
# Probe 786 (0.78362 0.57054 0)
# Probe 787 (0.78944 0.55649 0)
# Probe 788 (0.77603 0.55838 0)
# Probe 789 (0.78102 0.65506 0)
# Probe 790 (0.35292 0.75944 0)
# Probe 791 (0.35906 0.72504 0)
# Probe 792 (0.33776 0.70128 0)
# Probe 793 (0.37292 0.69307 0)
# Probe 794 (0.39406 0.71533 0)
# Probe 795 (0.43657 0.90741 0)
# Probe 796 (0.4287 0.95309 0)
# Probe 797 (0.63046 0.79387 0)
# Probe 798 (0.96472 0.72708 0)
# Probe 799 (0.77622 0.95912 0)
# Probe 800 (0.80295 0.92373 0)
# Probe 801 (0.67438 0.96553 0)
# Probe 802 (0.7259 0.51424 0)
# Probe 803 (0.74023 0.51446 0)
# Probe 804 (0.66207 0.39078 0)
# Probe 805 (0.60384 0.29769 0)
# Probe 806 (0.6351 0.29937 0)
# Probe 807 (0.55959 0.66526 0)
# Probe 808 (0.91778 0.13319 0)
# Probe 809 (0.65352 0.48686 0)
# Probe 810 (0.50539 0.81976 0)
# Probe 811 (0.56031 0.52287 0)
# Probe 812 (0.9232 0.61175 0)
# Probe 813 (0.43981 0.78252 0)
# Probe 814 (0.69012 0.79732 0)
# Probe 815 (0.58837 0.52113 0)
# Probe 816 (0.64285 0.75556 0)
# Probe 817 (0.6436 0.51453 0)
# Probe 818 (0.61412 0.52666 0)
# Probe 819 (0.63349 0.51796 0)
# Probe 820 (0.60544 0.53295 0)
# Probe 821 (0.58998 0.54729 0)
# Probe 822 (0.80695 0.72758 0)
# Probe 823 (0.5614 0.61425 0)
# Probe 824 (0.55259 0.60764 0)
# Probe 825 (0.5518 0.61875 0)
# Probe 826 (0.70857 0.73432 0)
# Probe 827 (0.35036 0.67182 0)
# Probe 828 (0.31719 0.67597 0)
# Probe 829 (0.36202 0.64368 0)
# Probe 830 (0.56148 0.62508 0)
# Probe 831 (0.96199 0.8226 0)
# Probe 832 (0.06888 0.56884 0)
# Probe 833 (0.05123 0.6055 0)
# Probe 834 (0.29752 0.45786 0)
# Probe 835 (0.31983 0.48338 0)
# Probe 836 (0.30598 0.5177 0)
# Probe 837 (0.45342 0.6531 0)
# Probe 838 (0.61057 0.47961 0)
# Probe 839 (0.56521 0.59362 0)
# Probe 840 (0.57266 0.57393 0)
# Probe 841 (0.51106 0.27015 0)
# Probe 842 (0.6648 0.51153 0)
# Probe 843 (0.65869 0.50332 0)
# Probe 844 (0.67091 0.50188 0)
# Probe 845 (0.58331 0.6843 0)
# Probe 846 (0.59641 0.7012 0)
# Probe 847 (0.9061 0.87479 0)
# Probe 848 (0.68653 0.72932 0)
# Probe 849 (0.81556 0.68415 0)
# Probe 850 (0.56944 0.50011 0)
# Probe 851 (0.27351 0.42898 0)
# Probe 852 (0.76362 0.6763 0)
# Probe 853 (0.77157 0.58375 0)
# Probe 854 (0.06426 0.27721 0)
# Probe 855 (0.67303 0.04212 0)
# Probe 856 (0.64974 0.08581 0)
# Probe 857 (0.87308 0.95742 0)
# Probe 858 (0.62373 0.7176 0)
# Probe 859 (0.60544 0.70705 0)
# Probe 860 (0.65526 0.72773 0)
# Probe 861 (0.63364 0.72208 0)
# Probe 862 (0.74041 0.72148 0)
# Probe 863 (0.4613 0.48388 0)
# Probe 864 (0.70756 0.72227 0)
# Probe 865 (0.73464 0.53297 0)
# Probe 866 (0.74515 0.52681 0)
# Probe 867 (0.75521 0.53686 0)
# Probe 868 (0.75834 0.52678 0)
# Probe 869 (0.57906 0.96307 0)
# Probe 870 (0.77942 0.62594 0)
# Probe 871 (0.77999 0.61531 0)
# Probe 872 (0.53228 0.60279 0)
# Probe 873 (0.72599 0.71317 0)
# Probe 874 (0.72618 0.7263 0)
# Probe 875 (0.77516 0.59374 0)
# Probe 876 (0.41525 0.07661 0)
# Probe 877 (0.76788 0.53454 0)
# Probe 878 (0.60534 0.23724 0)
# Probe 879 (0.76464 0.56299 0)
# Probe 880 (0.7862 0.59625 0)
# Probe 881 (0.92757 0.5531 0)
# Probe 882 (0.77802 0.04158 0)
# Probe 883 (0.33914 0.35303 0)
# Probe 884 (0.39724 0.37811 0)
# Probe 885 (0.41159 0.3414 0)
# Probe 886 (0.87026 0.60768 0)
# Probe 887 (0.75812 0.92034 0)
# Probe 888 (0.19555 0.08171 0)
# Probe 889 (0.50683 0.71805 0)
# Probe 890 (0.49369 0.30149 0)
# Probe 891 (0.7578 0.68542 0)
# Probe 892 (0.74278 0.7003 0)
# Probe 893 (0.04219 0.31872 0)
# Probe 894 (0.89435 0.91521 0)
# Probe 895 (0.91634 0.46033 0)
# Probe 896 (0.20663 0.5091 0)
# Probe 897 (0.23266 0.53367 0)
# Probe 898 (0.94267 0.09369 0)
# Probe 899 (0.87425 0.04754 0)
# Probe 900 (0.04992 0.72851 0)
# Probe 901 (0.74882 0.50143 0)
# Probe 902 (0.37198 0.95844 0)
# Probe 903 (0.04212 0.78045 0)
# Probe 904 (0.79368 0.681 0)
# Probe 905 (0.28025 0.67103 0)
# Probe 906 (0.61186 0.3935 0)
# Probe 907 (0.53418 0.55422 0)
# Probe 908 (0.85881 0.65684 0)
# Probe 909 (0.22788 0.95985 0)
# Probe 910 (0.35359 0.47445 0)
# Probe 911 (0.95959 0.38049 0)
# Probe 912 (0.96056 0.27381 0)
# Probe 913 (0.12726 0.96033 0)
# Probe 914 (0.04968 0.17375 0)
# Probe 915 (0.04193 0.87493 0)
# Probe 916 (0.78993 0.60881 0)
# Probe 917 (0.84241 0.3881 0)
# Probe 918 (0.50269 0.67267 0)
# Probe 919 (0.77441 0.67392 0)
# Probe 920 (0.0371 0.07514 0)
# Probe 921 (0.42742 0.81189 0)
# Probe 922 (0.04055 0.43127 0)
# Probe 923 (0.39845 0.69412 0)
# Probe 924 (0.72646 0.18659 0)
# Probe 925 (0.95838 0.22355 0)
# Probe 926 (0.29502 0.16049 0)
# Probe 927 (0.30227 0.70571 0)
# Probe 928 (0.87994 0.45811 0)
# Probe 929 (0.37911 0.41214 0)
# Probe 930 (0.3669 0.44287 0)
# Probe 931 (0.5292 0.95658 0)
# Probe 932 (0.58304 0.55544 0)
# Probe 933 (0.59693 0.77427 0)
# Probe 934 (0.6868 0.51154 0)
# Probe 935 (0.78547 0.73456 0)
# Probe 936 (0.79779 0.08192 0)
# Probe 937 (0.27555 0.95968 0)
# Probe 938 (0.53201 0.2974 0)
# Probe 939 (0.28492 0.63428 0)
# Probe 940 (0.53741 0.59053 0)
# Probe 941 (0.73751 0.31623 0)
# Probe 942 (0.74103 0.34726 0)
# Probe 943 (0.52735 0.57712 0)
# Probe 944 (0.45213 0.75795 0)
# Probe 945 (0.12279 0.69427 0)
# Probe 946 (0.13172 0.20216 0)
# Probe 947 (0.30097 0.91363 0)
# Probe 948 (0.46114 0.63386 0)
# Probe 949 (0.45166 0.6146 0)
# Probe 950 (0.84852 0.92213 0)
# Probe 951 (0.10146 0.49254 0)
# Probe 952 (0.7904 0.28248 0)
# Probe 953 (0.24105 0.33154 0)
# Probe 954 (0.58156 0.20394 0)
# Probe 955 (0.2073 0.58592 0)
# Probe 956 (0.41702 0.58208 0)
# Probe 957 (0.0752 0.64556 0)
# Probe 958 (0.17142 0.40915 0)
# Probe 959 (0.41898 0.24809 0)
# Probe 960 (0.9602 0.92276 0)
# Probe 961 (0.58994 0.39641 0)
# Probe 962 (0.77227 0.51926 0)
# Probe 963 (0.55191 0.63073 0)
# Probe 964 (0.71204 0.22545 0)
# Probe 965 (0.40038 0.11374 0)
# Probe 966 (0.5098 0.3289 0)
# Probe 967 (0.23722 0.15384 0)
# Probe 968 (0.34925 0.92081 0)
# Probe 969 (0.82629 0.21864 0)
# Probe 970 (0.64909 0.41134 0)
# Probe 971 (0.68611 0.41937 0)