# Probe 0 (0 0 0)
# Probe 1 (1 0 0)
# Probe 2 (1 1 0)
# Probe 3 (0 1 0)
# Probe 4 (0.71 0.29 0)
# Probe 5 (0.61 0.19 0)
# Probe 6 (0.51 0.29 0)
# Probe 7 (0.61 0.39 0)
# Probe 8 (0.05 0 0)
# Probe 9 (0.1 0 0)
# Probe 10 (0.15 0 0)
# Probe 11 (0.2 0 0)
# Probe 12 (0.25 0 0)
# Probe 13 (0.3 0 0)
# Probe 14 (0.35 0 0)
# Probe 15 (0.4 0 0)
# Probe 16 (0.45 0 0)
# Probe 17 (0.5 0 0)
# Probe 18 (0.55 0 0)
# Probe 19 (0.6 0 0)
# Probe 20 (0.65 0 0)
# Probe 21 (0.7 0 0)
# Probe 22 (0.75 0 0)
# Probe 23 (0.8 0 0)
# Probe 24 (0.85 0 0)
# Probe 25 (0.9 0 0)
# Probe 26 (0.95 0 0)
# Probe 27 (1 0.05 0)
# Probe 28 (1 0.1 0)
# Probe 29 (1 0.15 0)
# Probe 30 (1 0.2 0)
# Probe 31 (1 0.25 0)
# Probe 32 (1 0.3 0)
# Probe 33 (1 0.35 0)
# Probe 34 (1 0.4 0)
# Probe 35 (1 0.45 0)
# Probe 36 (1 0.5 0)
# Probe 37 (1 0.55 0)
# Probe 38 (1 0.6 0)
# Probe 39 (1 0.65 0)
# Probe 40 (1 0.7 0)
# Probe 41 (1 0.75 0)
# Probe 42 (1 0.8 0)
# Probe 43 (1 0.85 0)
# Probe 44 (1 0.9 0)
# Probe 45 (1 0.95 0)
# Probe 46 (0.95 1 0)
# Probe 47 (0.9 1 0)
# Probe 48 (0.85 1 0)
# Probe 49 (0.8 1 0)
# Probe 50 (0.75 1 0)
# Probe 51 (0.7 1 0)
# Probe 52 (0.65 1 0)
# Probe 53 (0.6 1 0)
# Probe 54 (0.55 1 0)
# Probe 55 (0.5 1 0)
# Probe 56 (0.45 1 0)
# Probe 57 (0.4 1 0)
# Probe 58 (0.35 1 0)
# Probe 59 (0.3 1 0)
# Probe 60 (0.25 1 0)
# Probe 61 (0.2 1 0)
# Probe 62 (0.15 1 0)
# Probe 63 (0.1 1 0)
# Probe 64 (0.05 1 0)
# Probe 65 (0 0.95 0)
# Probe 66 (0 0.9 0)
# Probe 67 (0 0.85 0)
# Probe 68 (0 0.8 0)
# Probe 69 (0 0.75 0)
# Probe 70 (0 0.7 0)
# Probe 71 (0 0.65 0)
# Probe 72 (0 0.6 0)
# Probe 73 (0 0.55 0)
# Probe 74 (0 0.5 0)
# Probe 75 (0 0.45 0)
# Probe 76 (0 0.4 0)
# Probe 77 (0 0.35 0)
# Probe 78 (0 0.3 0)
# Probe 79 (0 0.25 0)
# Probe 80 (0 0.2 0)
# Probe 81 (0 0.15 0)
# Probe 82 (0 0.1 0)
# Probe 83 (0 0.05 0)
# Probe 84 (0.70952 0.2802 0)
# Probe 85 (0.70808 0.27049 0)
# Probe 86 (0.70569 0.26097 0)
# Probe 87 (0.70239 0.25173 0)
# Probe 88 (0.69819 0.24286 0)
# Probe 89 (0.69315 0.23444 0)
# Probe 90 (0.6873 0.22656 0)
# Probe 91 (0.68071 0.21929 0)
# Probe 92 (0.67344 0.2127 0)
# Probe 93 (0.66556 0.20685 0)
# Probe 94 (0.65714 0.20181 0)
# Probe 95 (0.64827 0.19761 0)
# Probe 96 (0.63903 0.19431 0)
# Probe 97 (0.62951 0.19192 0)
# Probe 98 (0.6198 0.19048 0)
# Probe 99 (0.6002 0.19048 0)
# Probe 100 (0.59049 0.19192 0)
# Probe 101 (0.58097 0.19431 0)
# Probe 102 (0.57173 0.19761 0)
# Probe 103 (0.56286 0.20181 0)
# Probe 104 (0.55444 0.20685 0)
# Probe 105 (0.54656 0.2127 0)
# Probe 106 (0.53929 0.21929 0)
# Probe 107 (0.5327 0.22656 0)
# Probe 108 (0.52685 0.23444 0)
# Probe 109 (0.52181 0.24286 0)
# Probe 110 (0.51761 0.25173 0)
# Probe 111 (0.51431 0.26097 0)
# Probe 112 (0.51192 0.27049 0)
# Probe 113 (0.51048 0.2802 0)
# Probe 114 (0.51048 0.2998 0)
# Probe 115 (0.51192 0.30951 0)
# Probe 116 (0.51431 0.31903 0)
# Probe 117 (0.51761 0.32827 0)
# Probe 118 (0.52181 0.33714 0)
# Probe 119 (0.52685 0.34556 0)
# Probe 120 (0.5327 0.35344 0)
# Probe 121 (0.53929 0.36071 0)
# Probe 122 (0.54656 0.3673 0)
# Probe 123 (0.55444 0.37315 0)
# Probe 124 (0.56286 0.37819 0)
# Probe 125 (0.57173 0.38239 0)
# Probe 126 (0.58097 0.38569 0)
# Probe 127 (0.59049 0.38808 0)
# Probe 128 (0.6002 0.38952 0)
# Probe 129 (0.6198 0.38952 0)
# Probe 130 (0.62951 0.38808 0)
# Probe 131 (0.63903 0.38569 0)
# Probe 132 (0.64827 0.38239 0)
# Probe 133 (0.65714 0.37819 0)
# Probe 134 (0.66556 0.37315 0)
# Probe 135 (0.67344 0.3673 0)
# Probe 136 (0.68071 0.36071 0)
# Probe 137 (0.6873 0.35344 0)
# Probe 138 (0.69315 0.34556 0)
# Probe 139 (0.69819 0.33714 0)
# Probe 140 (0.70239 0.32827 0)
# Probe 141 (0.70569 0.31903 0)
# Probe 142 (0.70808 0.30951 0)
# Probe 143 (0.70952 0.2998 0)
# Probe 144 (0.37048 0.95714 0)
# Probe 145 (0.0415 0.57511 0)
# Probe 146 (0.67413 0.9563 0)
# Probe 147 (0.04219 0.42454 0)
# Probe 148 (0.9567 0.625 0)
# Probe 149 (0.04279 0.27938 0)
# Probe 150 (0.52352 0.95089 0)
# Probe 151 (0.32 0.04052 0)
# Probe 152 (0.04102 0.72142 0)
# Probe 153 (0.95947 0.47366 0)
# Probe 154 (0.56258 0.19126 0)
# Probe 155 (0.65657 0.19194 0)
# Probe 156 (0.9567 0.775 0)
# Probe 157 (0.95151 0.1758 0)
# Probe 158 (0.59415 0.18358 0)
# Probe 159 (0.62613 0.18244 0)
# Probe 160 (0.95741 0.31866 0)
# Probe 161 (0.22573 0.95506 0)
# Probe 162 (0.77031 0.04234 0)
# Probe 163 (0.67453 0.20299 0)
# Probe 164 (0.17027 0.04091 0)
# Probe 165 (0.46768 0.04129 0)
# Probe 166 (0.8257 0.95812 0)
# Probe 167 (0.04261 0.17555 0)
# Probe 168 (0.04678 0.82541 0)
# Probe 169 (0.68354 0.03941 0)
# Probe 170 (0.57841 0.04142 0)
# Probe 171 (0.87915 0.03785 0)
# Probe 172 (0.94823 0.88057 0)
# Probe 173 (0.12456 0.9529 0)
# Probe 174 (0.04212 0.07951 0)
# Probe 175 (0.95777 0.0752 0)
# Probe 176 (0.92813 0.9606 0)
# Probe 177 (0.04111 0.92623 0)
# Probe 178 (0.6166 0.04011 0)
# Probe 179 (0.64697 0.07816 0)
# Probe 180 (0.59885 0.07806 0)
# Probe 181 (0.56332 0.07918 0)
# Probe 182 (0.57942 0.10689 0)
# Probe 183 (0.5512 0.10904 0)
# Probe 184 (0.56576 0.13107 0)
# Probe 185 (0.54031 0.13316 0)
# Probe 186 (0.58963 0.13194 0)
# Probe 187 (0.52404 0.11303 0)
# Probe 188 (0.51522 0.14053 0)
# Probe 189 (0.52994 0.21627 0)
# Probe 190 (0.5438 0.20077 0)
# Probe 191 (0.49771 0.11732 0)
# Probe 192 (0.48816 0.14221 0)
# Probe 193 (0.47069 0.1211 0)
# Probe 194 (0.46115 0.14642 0)
# Probe 195 (0.44295 0.12473 0)
# Probe 196 (0.43368 0.15133 0)
# Probe 197 (0.51217 0.24352 0)
# Probe 198 (0.45445 0.17273 0)
# Probe 199 (0.42564 0.17678 0)
# Probe 200 (0.44177 0.19561 0)
# Probe 201 (0.4167 0.20052 0)
# Probe 202 (0.50304 0.27492 0)
# Probe 203 (0.39975 0.18153 0)
# Probe 204 (0.39171 0.20593 0)
# Probe 205 (0.41222 0.22578 0)
# Probe 206 (0.38498 0.23022 0)
# Probe 207 (0.40147 0.24832 0)
# Probe 208 (0.37744 0.25368 0)
# Probe 209 (0.39393 0.2713 0)
# Probe 210 (0.37016 0.27697 0)
# Probe 211 (0.38667 0.29453 0)
# Probe 212 (0.36315 0.30039 0)
# Probe 213 (0.37955 0.31823 0)
# Probe 214 (0.35594 0.32372 0)
# Probe 215 (0.37259 0.34171 0)
# Probe 216 (0.3489 0.34689 0)
# Probe 217 (0.36543 0.36531 0)
# Probe 218 (0.33741 0.37145 0)
# Probe 219 (0.35633 0.39006 0)
# Probe 220 (0.33238 0.39725 0)
# Probe 221 (0.34942 0.41701 0)
# Probe 222 (0.51203 0.33634 0)
# Probe 223 (0.35297 0.259 0)
# Probe 224 (0.32343 0.42406 0)
# Probe 225 (0.34295 0.44473 0)
# Probe 226 (0.37251 0.43313 0)
# Probe 227 (0.36332 0.46421 0)
# Probe 228 (0.39107 0.45703 0)
# Probe 229 (0.38278 0.48456 0)
# Probe 230 (0.40919 0.47786 0)
# Probe 231 (0.40195 0.50445 0)
# Probe 232 (0.4281 0.49776 0)
# Probe 233 (0.42098 0.52417 0)
# Probe 234 (0.44718 0.5175 0)
# Probe 235 (0.44004 0.54412 0)
# Probe 236 (0.46676 0.53726 0)
# Probe 237 (0.41278 0.55122 0)
# Probe 238 (0.4595 0.56453 0)
# Probe 239 (0.48714 0.55745 0)
# Probe 240 (0.56328 0.38741 0)
# Probe 241 (0.53728 0.37024 0)
# Probe 242 (0.47938 0.58568 0)
# Probe 243 (0.50792 0.57842 0)
# Probe 244 (0.50024 0.60758 0)
# Probe 245 (0.53015 0.59991 0)
# Probe 246 (0.33563 0.47257 0)
# Probe 247 (0.46855 0.61398 0)
# Probe 248 (0.33095 0.32882 0)
# Probe 249 (0.3043 0.40289 0)
# Probe 250 (0.52207 0.63071 0)
# Probe 251 (0.55336 0.62231 0)
# Probe 252 (0.56238 0.58764 0)
# Probe 253 (0.5941 0.39721 0)
# Probe 254 (0.58471 0.61292 0)
# Probe 255 (0.59453 0.58332 0)
# Probe 256 (0.61582 0.60517 0)
# Probe 257 (0.62475 0.57453 0)
# Probe 258 (0.62609 0.39717 0)
# Probe 259 (0.64694 0.59706 0)
# Probe 260 (0.65569 0.56607 0)
# Probe 261 (0.63874 0.6291 0)
# Probe 262 (0.54571 0.65428 0)
# Probe 263 (0.50407 0.30544 0)
# Probe 264 (0.67803 0.58852 0)
# Probe 265 (0.68548 0.55841 0)
# Probe 266 (0.65618 0.38754 0)
# Probe 267 (0.49538 0.52642 0)
# Probe 268 (0.41696 0.45204 0)
# Probe 269 (0.38809 0.35781 0)
# Probe 270 (0.6016 0.5526 0)
# Probe 271 (0.70917 0.58003 0)
# Probe 272 (0.71496 0.55113 0)
# Probe 273 (0.375 0.18673 0)
# Probe 274 (0.52286 0.35455 0)
# Probe 275 (0.66269 0.53756 0)
# Probe 276 (0.74125 0.57173 0)
# Probe 277 (0.73286 0.60224 0)
# Probe 278 (0.74496 0.53605 0)
# Probe 279 (0.70261 0.34554 0)
# Probe 280 (0.68269 0.37049 0)
# Probe 281 (0.71239 0.32627 0)
# Probe 282 (0.402 0.31294 0)
# Probe 283 (0.77465 0.56308 0)
# Probe 284 (0.78071 0.52851 0)
# Probe 285 (0.75824 0.50373 0)
# Probe 286 (0.78982 0.496 0)
# Probe 287 (0.76785 0.47319 0)
# Probe 288 (0.79734 0.46517 0)
# Probe 289 (0.7721 0.44211 0)
# Probe 290 (0.74662 0.45506 0)
# Probe 291 (0.80359 0.43544 0)
# Probe 292 (0.78318 0.41444 0)
# Probe 293 (0.81073 0.40712 0)
# Probe 294 (0.79073 0.38794 0)
# Probe 295 (0.41763 0.26802 0)
# Probe 296 (0.81756 0.37988 0)
# Probe 297 (0.79811 0.36174 0)
# Probe 298 (0.82403 0.35314 0)
# Probe 299 (0.80081 0.33374 0)
# Probe 300 (0.7116 0.25363 0)
# Probe 301 (0.71825 0.28468 0)
# Probe 302 (0.70335 0.23426 0)
# Probe 303 (0.82994 0.3266 0)
# Probe 304 (0.81047 0.30821 0)
# Probe 305 (0.83679 0.30025 0)
# Probe 306 (0.81719 0.28142 0)
# Probe 307 (0.45326 0.49092 0)
# Probe 308 (0.84441 0.2728 0)
# Probe 309 (0.82342 0.25349 0)
# Probe 310 (0.29492 0.43167 0)
# Probe 311 (0.27427 0.40742 0)
# Probe 312 (0.26441 0.43934 0)
# Probe 313 (0.24225 0.41482 0)
# Probe 314 (0.23166 0.44687 0)
# Probe 315 (0.25295 0.3823 0)
# Probe 316 (0.2193 0.39017 0)
# Probe 317 (0.23066 0.35653 0)
# Probe 318 (0.19549 0.36458 0)
# Probe 319 (0.20759 0.32937 0)
# Probe 320 (0.41465 0.12908 0)
# Probe 321 (0.25519 0.47207 0)
# Probe 322 (0.22233 0.48047 0)
# Probe 323 (0.24371 0.50543 0)
# Probe 324 (0.21142 0.51482 0)
# Probe 325 (0.23354 0.54068 0)
# Probe 326 (0.19931 0.55 0)
# Probe 327 (0.22514 0.57753 0)
# Probe 328 (0.2645 0.56316 0)
# Probe 329 (0.25354 0.60404 0)
# Probe 330 (0.21511 0.6147 0)
# Probe 331 (0.24264 0.64251 0)
# Probe 332 (0.28104 0.63207 0)
# Probe 333 (0.2705 0.67005 0)
# Probe 334 (0.30786 0.65959 0)
# Probe 335 (0.29843 0.69798 0)
# Probe 336 (0.26045 0.709 0)
# Probe 337 (0.28959 0.73779 0)
# Probe 338 (0.32819 0.72571 0)
# Probe 339 (0.24949 0.74897 0)
# Probe 340 (0.27986 0.77879 0)
# Probe 341 (0.23791 0.79023 0)
# Probe 342 (0.20395 0.65332 0)
# Probe 343 (0.81027 0.52074 0)
# Probe 344 (0.51196 0.66276 0)
# Probe 345 (0.53685 0.68814 0)
# Probe 346 (0.50062 0.69672 0)
# Probe 347 (0.52608 0.72359 0)
# Probe 348 (0.48964 0.7325 0)
# Probe 349 (0.56286 0.71424 0)
# Probe 350 (0.55213 0.75104 0)
# Probe 351 (0.59001 0.74107 0)
# Probe 352 (0.58006 0.7781 0)
# Probe 353 (0.61818 0.76867 0)
# Probe 354 (0.54551 0.78616 0)
# Probe 355 (0.76643 0.39493 0)
# Probe 356 (0.19955 0.45864 0)
# Probe 357 (0.1791 0.51897 0)
# Probe 358 (0.84369 0.40326 0)
# Probe 359 (0.79524 0.26478 0)
# Probe 360 (0.80313 0.23699 0)
# Probe 361 (0.829 0.22569 0)
# Probe 362 (0.80318 0.20908 0)
# Probe 363 (0.83455 0.19663 0)
# Probe 364 (0.37487 0.51185 0)
# Probe 365 (0.82638 0.45474 0)
# Probe 366 (0.78612 0.31428 0)
# Probe 367 (0.60635 0.80796 0)
# Probe 368 (0.64579 0.79802 0)
# Probe 369 (0.65728 0.75822 0)
# Probe 370 (0.6854 0.78749 0)
# Probe 371 (0.69642 0.74774 0)
# Probe 372 (0.72551 0.77714 0)
# Probe 373 (0.73465 0.73865 0)
# Probe 374 (0.76582 0.76642 0)
# Probe 375 (0.77323 0.71823 0)
# Probe 376 (0.81043 0.17697 0)
# Probe 377 (0.78163 0.18693 0)
# Probe 378 (0.46372 0.70468 0)
# Probe 379 (0.45256 0.74113 0)
# Probe 380 (0.85112 0.34558 0)
# Probe 381 (0.4649 0.19377 0)
# Probe 382 (0.45607 0.21275 0)
# Probe 383 (0.20685 0.7601 0)
# Probe 384 (0.19507 0.80223 0)
# Probe 385 (0.75511 0.80793 0)
# Probe 386 (0.79804 0.79633 0)
# Probe 387 (0.77883 0.24692 0)
# Probe 388 (0.17111 0.33699 0)
# Probe 389 (0.1838 0.30183 0)
# Probe 390 (0.22011 0.29442 0)
# Probe 391 (0.19609 0.26639 0)
# Probe 392 (0.23277 0.25912 0)
# Probe 393 (0.20828 0.23071 0)
# Probe 394 (0.24562 0.22344 0)
# Probe 395 (0.22079 0.19463 0)
# Probe 396 (0.25954 0.1872 0)
# Probe 397 (0.31781 0.62226 0)
# Probe 398 (0.34412 0.64898 0)
# Probe 399 (0.26903 0.82073 0)
# Probe 400 (0.31128 0.8085 0)
# Probe 401 (0.84561 0.16111 0)
# Probe 402 (0.77173 0.26676 0)
# Probe 403 (0.78849 0.15696 0)
# Probe 404 (0.75974 0.16913 0)
# Probe 405 (0.16431 0.23755 0)
# Probe 406 (0.1752 0.62419 0)
# Probe 407 (0.75623 0.19549 0)
# Probe 408 (0.73345 0.18175 0)
# Probe 409 (0.73807 0.15509 0)
# Probe 410 (0.69118 0.21696 0)
# Probe 411 (0.71548 0.16535 0)
# Probe 412 (0.71788 0.13994 0)
# Probe 413 (0.69534 0.15049 0)
# Probe 414 (0.85903 0.21667 0)
# Probe 415 (0.50141 0.16043 0)
# Probe 416 (0.15907 0.37332 0)
# Probe 417 (0.47767 0.21115 0)
# Probe 418 (0.46959 0.22793 0)
# Probe 419 (0.16329 0.66329 0)
# Probe 420 (0.23367 0.15801 0)
# Probe 421 (0.20074 0.16742 0)
# Probe 422 (0.27345 0.15034 0)
# Probe 423 (0.6716 0.82943 0)
# Probe 424 (0.30077 0.8513 0)
# Probe 425 (0.34319 0.83862 0)
# Probe 426 (0.70554 0.70943 0)
# Probe 427 (0.13307 0.34426 0)
# Probe 428 (0.16248 0.77062 0)
# Probe 429 (0.75734 0.25299 0)
# Probe 430 (0.74206 0.12822 0)
# Probe 431 (0.25617 0.28791 0)
# Probe 432 (0.86612 0.29346 0)
# Probe 433 (0.78598 0.83987 0)
# Probe 434 (0.82983 0.82842 0)
# Probe 435 (0.84186 0.7837 0)
# Probe 436 (0.42647 0.71442 0)
# Probe 437 (0.41446 0.75042 0)
# Probe 438 (0.44106 0.77852 0)
# Probe 439 (0.42497 0.09984 0)
# Probe 440 (0.24662 0.12003 0)
# Probe 441 (0.2793 0.21771 0)
# Probe 442 (0.35347 0.61343 0)
# Probe 443 (0.37909 0.63857 0)
# Probe 444 (0.14856 0.81383 0)
# Probe 445 (0.73364 0.20402 0)
# Probe 446 (0.39357 0.10341 0)
# Probe 447 (0.1337 0.63362 0)
# Probe 448 (0.18332 0.8463 0)
# Probe 449 (0.75302 0.27129 0)
# Probe 450 (0.45035 0.23101 0)
# Probe 451 (0.46342 0.24508 0)
# Probe 452 (0.69687 0.12504 0)
# Probe 453 (0.67086 0.13988 0)
# Probe 454 (0.59981 0.704 0)
# Probe 455 (0.26492 0.34839 0)
# Probe 456 (0.32885 0.58755 0)
# Probe 457 (0.55479 0.15178 0)
# Probe 458 (0.48023 0.24302 0)
# Probe 459 (0.47483 0.25819 0)
# Probe 460 (0.45872 0.26135 0)
# Probe 461 (0.47007 0.27386 0)
# Probe 462 (0.45458 0.27733 0)
# Probe 463 (0.46575 0.28906 0)
# Probe 464 (0.45026 0.29285 0)
# Probe 465 (0.46154 0.30422 0)
# Probe 466 (0.44447 0.30823 0)
# Probe 467 (0.45741 0.3201 0)
# Probe 468 (0.43858 0.32437 0)
# Probe 469 (0.45275 0.3362 0)
# Probe 470 (0.4687 0.33177 0)
# Probe 471 (0.46479 0.34768 0)
# Probe 472 (0.44878 0.35246 0)
# Probe 473 (0.46122 0.36416 0)
# Probe 474 (0.44497 0.3692 0)
# Probe 475 (0.45738 0.38053 0)
# Probe 476 (0.47571 0.37385 0)
# Probe 477 (0.46898 0.39392 0)
# Probe 478 (0.48621 0.38812 0)
# Probe 479 (0.48378 0.40435 0)
# Probe 480 (0.50042 0.39814 0)
# Probe 481 (0.49663 0.41503 0)
# Probe 482 (0.51274 0.41028 0)
# Probe 483 (0.50908 0.42628 0)
# Probe 484 (0.5248 0.42157 0)
# Probe 485 (0.52119 0.43794 0)
# Probe 486 (0.53738 0.43286 0)
# Probe 487 (0.53372 0.4496 0)
# Probe 488 (0.54913 0.44402 0)
# Probe 489 (0.54666 0.46125 0)
# Probe 490 (0.56396 0.4529 0)
# Probe 491 (0.56021 0.47378 0)
# Probe 492 (0.57818 0.46755 0)
# Probe 493 (0.58248 0.4491 0)
# Probe 494 (0.59586 0.46154 0)
# Probe 495 (0.48295 0.42143 0)
# Probe 496 (0.50505 0.44137 0)
# Probe 497 (0.53012 0.46632 0)
# Probe 498 (0.59841 0.44392 0)
# Probe 499 (0.61236 0.45526 0)
# Probe 500 (0.60982 0.47318 0)
# Probe 501 (0.62734 0.46663 0)
# Probe 502 (0.62968 0.44561 0)
# Probe 503 (0.64482 0.45915 0)
# Probe 504 (0.64857 0.44059 0)
# Probe 505 (0.66257 0.45295 0)
# Probe 506 (0.66493 0.43175 0)
# Probe 507 (0.44031 0.38695 0)
# Probe 508 (0.6803 0.44601 0)
# Probe 509 (0.68318 0.42698 0)
# Probe 510 (0.67686 0.46768 0)
# Probe 511 (0.55106 0.42837 0)
# Probe 512 (0.57451 0.48764 0)
# Probe 513 (0.55491 0.49406 0)
# Probe 514 (0.52861 0.4062 0)
# Probe 515 (0.5866 0.43276 0)
# Probe 516 (0.60092 0.42778 0)
# Probe 517 (0.62531 0.48632 0)
# Probe 518 (0.49105 0.37297 0)
# Probe 519 (0.65082 0.42342 0)
# Probe 520 (0.4797 0.34297 0)
# Probe 521 (0.4834 0.32849 0)
# Probe 522 (0.69828 0.43898 0)
# Probe 523 (0.70048 0.42007 0)
# Probe 524 (0.68588 0.40952 0)
# Probe 525 (0.70104 0.39971 0)
# Probe 526 (0.71723 0.41218 0)
# Probe 527 (0.71811 0.39406 0)
# Probe 528 (0.57129 0.51008 0)
# Probe 529 (0.54796 0.51655 0)
# Probe 530 (0.13596 0.85884 0)
# Probe 531 (0.87395 0.8162 0)
# Probe 532 (0.86258 0.8618 0)
# Probe 533 (0.43728 0.67638 0)
# Probe 534 (0.43159 0.35948 0)
# Probe 535 (0.12078 0.38212 0)
# Probe 536 (0.09287 0.35191 0)
# Probe 537 (0.43613 0.29571 0)
# Probe 538 (0.47555 0.29972 0)
# Probe 539 (0.11784 0.78073 0)
# Probe 540 (0.69501 0.17395 0)
# Probe 541 (0.1219 0.67551 0)
# Probe 542 (0.08413 0.64172 0)
# Probe 543 (0.27724 0.49914 0)
# Probe 544 (0.25816 0.86421 0)
# Probe 545 (0.29057 0.89589 0)
# Probe 546 (0.74021 0.25898 0)
# Probe 547 (0.74239 0.24217 0)
# Probe 548 (0.7419 0.85189 0)
# Probe 549 (0.37035 0.67354 0)
# Probe 550 (0.14682 0.59483 0)
# Probe 551 (0.77363 0.88359 0)
# Probe 552 (0.2865 0.1132 0)
# Probe 553 (0.31246 0.14307 0)
# Probe 554 (0.32572 0.10737 0)
# Probe 555 (0.70523 0.38307 0)
# Probe 556 (0.71929 0.37735 0)
# Probe 557 (0.49046 0.2544 0)
# Probe 558 (0.1072 0.31331 0)
# Probe 559 (0.3553 0.79098 0)
# Probe 560 (0.38503 0.82586 0)
# Probe 561 (0.37539 0.86851 0)
# Probe 562 (0.41794 0.85628 0)
# Probe 563 (0.38724 0.60491 0)
# Probe 564 (0.76508 0.28482 0)
# Probe 565 (0.71748 0.30613 0)
# Probe 566 (0.74791 0.28765 0)
# Probe 567 (0.70739 0.36923 0)
# Probe 568 (0.72011 0.36196 0)
# Probe 569 (0.73295 0.37004 0)
# Probe 570 (0.73345 0.35394 0)
# Probe 571 (0.74953 0.36242 0)
# Probe 572 (0.74848 0.34532 0)
# Probe 573 (0.53239 0.49958 0)
# Probe 574 (0.48509 0.19298 0)
# Probe 575 (0.49638 0.20658 0)
# Probe 576 (0.26042 0.08097 0)
# Probe 577 (0.35226 0.14158 0)
# Probe 578 (0.73005 0.90048 0)
# Probe 579 (0.87443 0.2638 0)
# Probe 580 (0.89832 0.28619 0)
# Probe 581 (0.90795 0.25255 0)
# Probe 582 (0.73223 0.33589 0)
# Probe 583 (0.74747 0.32868 0)
# Probe 584 (0.7563 0.30131 0)
# Probe 585 (0.5893 0.41861 0)
# Probe 586 (0.60176 0.41253 0)
# Probe 587 (0.61383 0.42225 0)
# Probe 588 (0.17068 0.88875 0)
# Probe 589 (0.59136 0.4998 0)
# Probe 590 (0.14741 0.4099 0)
# Probe 591 (0.566 0.53277 0)
# Probe 592 (0.54108 0.54183 0)
# Probe 593 (0.4054 0.07074 0)
# Probe 594 (0.50725 0.09187 0)
# Probe 595 (0.54176 0.05314 0)
# Probe 596 (0.41171 0.62834 0)
# Probe 597 (0.76304 0.33648 0)
# Probe 598 (0.57627 0.42208 0)
# Probe 599 (0.57925 0.40857 0)
# Probe 600 (0.73547 0.31984 0)
# Probe 601 (0.56691 0.41222 0)
# Probe 602 (0.88368 0.77061 0)
# Probe 603 (0.85259 0.73914 0)
# Probe 604 (0.89503 0.72581 0)
# Probe 605 (0.86347 0.69486 0)
# Probe 606 (0.90735 0.68174 0)
# Probe 607 (0.87442 0.65126 0)
# Probe 608 (0.83254 0.66364 0)
# Probe 609 (0.84336 0.62107 0)
# Probe 610 (0.88399 0.60937 0)
# Probe 611 (0.80212 0.63185 0)
# Probe 612 (0.85342 0.58022 0)
# Probe 613 (0.89347 0.56866 0)
# Probe 614 (0.11002 0.42129 0)
# Probe 615 (0.13655 0.44942 0)
# Probe 616 (0.09587 0.46183 0)
# Probe 617 (0.50331 0.19085 0)
# Probe 618 (0.40814 0.89719 0)
# Probe 619 (0.45032 0.88563 0)
# Probe 620 (0.46 0.84423 0)
# Probe 621 (0.49239 0.872 0)
# Probe 622 (0.89027 0.31793 0)
# Probe 623 (0.4928 0.3388 0)
# Probe 624 (0.49651 0.32682 0)
# Probe 625 (0.41899 0.59792 0)
# Probe 626 (0.73758 0.27519 0)
# Probe 627 (0.48853 0.31685 0)
# Probe 628 (0.7613 0.92746 0)
# Probe 629 (0.73447 0.40544 0)
# Probe 630 (0.19097 0.6909 0)
# Probe 631 (0.51238 0.20367 0)
# Probe 632 (0.5196 0.18914 0)
# Probe 633 (0.50643 0.21785 0)
# Probe 634 (0.43898 0.92502 0)
# Probe 635 (0.57917 0.15275 0)
# Probe 636 (0.60006 0.15207 0)
# Probe 637 (0.612 0.13592 0)
# Probe 638 (0.61835 0.15541 0)
# Probe 639 (0.63171 0.14148 0)
# Probe 640 (0.6362 0.16079 0)
# Probe 641 (0.62922 0.11884 0)
# Probe 642 (0.5668 0.16962 0)
# Probe 643 (0.54706 0.16845 0)
# Probe 644 (0.12283 0.49119 0)
# Probe 645 (0.08216 0.50619 0)
# Probe 646 (0.11343 0.53349 0)
# Probe 647 (0.49344 0.24185 0)
# Probe 648 (0.49233 0.22097 0)
# Probe 649 (0.71101 0.18622 0)
# Probe 650 (0.69529 0.19248 0)
# Probe 651 (0.70708 0.20267 0)
# Probe 652 (0.67903 0.18313 0)
# Probe 653 (0.67687 0.16343 0)
# Probe 654 (0.86394 0.54008 0)
# Probe 655 (0.906 0.5291 0)
# Probe 656 (0.87654 0.5009 0)
# Probe 657 (0.93378 0.55695 0)
# Probe 658 (0.38708 0.72963 0)
# Probe 659 (0.72605 0.265 0)
# Probe 660 (0.72922 0.25022 0)
# Probe 661 (0.72805 0.23365 0)
# Probe 662 (0.74146 0.2245 0)
# Probe 663 (0.21665 0.09367 0)
# Probe 664 (0.75635 0.4178 0)
# Probe 665 (0.93305 0.2792 0)
# Probe 666 (0.93776 0.24432 0)
# Probe 667 (0.9197 0.21522 0)
# Probe 668 (0.79445 0.2913 0)
# Probe 669 (0.79237 0.67274 0)
# Probe 670 (0.76463 0.6463 0)
# Probe 671 (0.75103 0.68032 0)
# Probe 672 (0.72569 0.65428 0)
# Probe 673 (0.49003 0.35206 0)
# Probe 674 (0.37202 0.07514 0)
# Probe 675 (0.50085 0.83301 0)
# Probe 676 (0.53437 0.8605 0)
# Probe 677 (0.50371 0.34633 0)
# Probe 678 (0.1327 0.73941 0)
# Probe 679 (0.66316 0.17472 0)
# Probe 680 (0.72111 0.34754 0)
# Probe 681 (0.67506 0.10867 0)
# Probe 682 (0.70901 0.09651 0)
# Probe 683 (0.58081 0.16875 0)
# Probe 684 (0.44569 0.26533 0)
# Probe 685 (0.67141 0.4143 0)
# Probe 686 (0.65357 0.40819 0)
# Probe 687 (0.67441 0.3994 0)
# Probe 688 (0.68578 0.39314 0)
# Probe 689 (0.6749 0.38748 0)
# Probe 690 (0.33371 0.1714 0)
# Probe 691 (0.73283 0.42441 0)
# Probe 692 (0.77485 0.2125 0)
# Probe 693 (0.38238 0.16039 0)
# Probe 694 (0.47893 0.16295 0)
# Probe 695 (0.61421 0.40903 0)
# Probe 696 (0.62686 0.41664 0)
# Probe 697 (0.60675 0.16896 0)
# Probe 698 (0.94005 0.71214 0)
# Probe 699 (0.7259 0.03777 0)
# Probe 700 (0.74506 0.07742 0)
# Probe 701 (0.78833 0.08202 0)
# Probe 702 (0.81405 0.04625 0)
# Probe 703 (0.8282 0.08942 0)
# Probe 704 (0.53395 0.15506 0)
# Probe 705 (0.29852 0.18431 0)
# Probe 706 (0.32545 0.2043 0)
# Probe 707 (0.31472 0.23821 0)
# Probe 708 (0.63401 0.54516 0)
# Probe 709 (0.64367 0.51849 0)
# Probe 710 (0.67069 0.5092 0)
# Probe 711 (0.61896 0.52534 0)
# Probe 712 (0.73894 0.48009 0)
# Probe 713 (0.72803 0.50615 0)
# Probe 714 (0.71191 0.48354 0)
# Probe 715 (0.40781 0.29048 0)
# Probe 716 (0.7712 0.37103 0)
# Probe 717 (0.69985 0.5085 0)
# Probe 718 (0.52485 0.9014 0)
# Probe 719 (0.56649 0.88685 0)
# Probe 720 (0.47357 0.31537 0)
# Probe 721 (0.53984 0.41764 0)
# Probe 722 (0.54459 0.40233 0)
# Probe 723 (0.53245 0.39245 0)
# Probe 724 (0.54449 0.38818 0)
# Probe 725 (0.51769 0.39568 0)
# Probe 726 (0.52259 0.38314 0)
# Probe 727 (0.50936 0.38501 0)
# Probe 728 (0.51494 0.37415 0)
# Probe 729 (0.73116 0.28967 0)
# Probe 730 (0.73851 0.30415 0)
# Probe 731 (0.57027 0.40079 0)
# Probe 732 (0.48009 0.28561 0)
# Probe 733 (0.48398 0.27042 0)
# Probe 734 (0.48892 0.2963 0)
# Probe 735 (0.57652 0.17891 0)
# Probe 736 (0.52835 0.20276 0)
# Probe 737 (0.53525 0.18946 0)
# Probe 738 (0.54964 0.18947 0)
# Probe 739 (0.65616 0.16051 0)
# Probe 740 (0.2637 0.25202 0)
# Probe 741 (0.30397 0.2689 0)
# Probe 742 (0.43442 0.47136 0)
# Probe 743 (0.45924 0.46606 0)
# Probe 744 (0.47702 0.48341 0)
# Probe 745 (0.48276 0.4598 0)
# Probe 746 (0.49755 0.47665 0)
# Probe 747 (0.46445 0.44484 0)
# Probe 748 (0.4945 0.49914 0)
# Probe 749 (0.55892 0.40334 0)
# Probe 750 (0.42381 0.24439 0)
# Probe 751 (0.44185 0.44846 0)
# Probe 752 (0.42697 0.42945 0)
# Probe 753 (0.44869 0.42804 0)
# Probe 754 (0.43712 0.40689 0)
# Probe 755 (0.41372 0.41021 0)
# Probe 756 (0.40191 0.43182 0)
# Probe 757 (0.39049 0.40886 0)
# Probe 758 (0.40353 0.38907 0)
# Probe 759 (0.76594 0.60437 0)
# Probe 760 (0.80628 0.5844 0)
# Probe 761 (0.79881 0.12207 0)
# Probe 762 (0.39534 0.33503 0)
# Probe 763 (0.4178 0.32899 0)
# Probe 764 (0.52983 0.36264 0)
# Probe 765 (0.57227 0.43633 0)
# Probe 766 (0.58266 0.39699 0)
# Probe 767 (0.6048 0.40018 0)
# Probe 768 (0.51655 0.34595 0)
# Probe 769 (0.5022 0.31582 0)
# Probe 770 (0.63622 0.39549 0)
# Probe 771 (0.58151 0.8431 0)
# Probe 772 (0.61366 0.87596 0)
# Probe 773 (0.59749 0.91736 0)
# Probe 774 (0.64263 0.91127 0)
# Probe 775 (0.7627 0.23176 0)
# Probe 776 (0.49353 0.28335 0)
# Probe 777 (0.06687 0.31966 0)
# Probe 778 (0.5608 0.55793 0)
# Probe 779 (0.05038 0.3549 0)
# Probe 780 (0.36231 0.58027 0)
# Probe 781 (0.33872 0.55502 0)
# Probe 782 (0.30422 0.56074 0)
# Probe 783 (0.31735 0.53086 0)
# Probe 784 (0.28746 0.53157 0)
# Probe 785 (0.3727 0.54695 0)
# Probe 786 (0.64645 0.3919 0)
# Probe 787 (0.64858 0.49352 0)
# Probe 788 (0.69 0.36274 0)
# Probe 789 (0.50512 0.26384 0)
# Probe 790 (0.69673 0.3543 0)
# Probe 791 (0.47626 0.35711 0)
# Probe 792 (0.90812 0.8471 0)
# Probe 793 (0.89426 0.89594 0)
# Probe 794 (0.70807 0.33586 0)
# Probe 795 (0.04847 0.47172 0)
# Probe 796 (0.5086 0.25362 0)
# Probe 797 (0.51723 0.23438 0)
# Probe 798 (0.24288 0.32186 0)
# Probe 799 (0.27661 0.31872 0)
# Probe 800 (0.30098 0.34277 0)
# Probe 801 (0.28951 0.3763 0)
# Probe 802 (0.82023 0.70734 0)
# Probe 803 (0.62437 0.43022 0)
# Probe 804 (0.95694 0.12513 0)
# Probe 805 (0.91559 0.14714 0)
# Probe 806 (0.91779 0.10017 0)
# Probe 807 (0.8791 0.13105 0)
# Probe 808 (0.29166 0.59497 0)
# Probe 809 (0.84664 0.91015 0)
# Probe 810 (0.7173 0.2739 0)
# Probe 811 (0.52316 0.22537 0)
# Probe 812 (0.69474 0.37338 0)
# Probe 813 (0.91557 0.48998 0)
# Probe 814 (0.88937 0.45923 0)
# Probe 815 (0.9587 0.37291 0)
# Probe 816 (0.95429 0.42699 0)
# Probe 817 (0.91914 0.39528 0)
# Probe 818 (0.91587 0.34778 0)
# Probe 819 (0.88239 0.37284 0)
# Probe 820 (0.88139 0.41289 0)
# Probe 821 (0.91451 0.43134 0)
# Probe 822 (0.71509 0.31629 0)
# Probe 823 (0.71905 0.29569 0)
# Probe 824 (0.68308 0.20961 0)
# Probe 825 (0.69788 0.2253 0)
# Probe 826 (0.70888 0.22482 0)
# Probe 827 (0.7079 0.24371 0)
# Probe 828 (0.64663 0.18777 0)
# Probe 829 (0.66566 0.19715 0)
# Probe 830 (0.24591 0.90883 0)
# Probe 831 (0.28037 0.95083 0)
# Probe 832 (0.32695 0.92758 0)
# Probe 833 (0.63636 0.18451 0)
# Probe 834 (0.61517 0.1809 0)
# Probe 835 (0.04239 0.22574 0)
# Probe 836 (0.08411 0.2003 0)
# Probe 837 (0.08442 0.15244 0)
# Probe 838 (0.1232 0.17641 0)
# Probe 839 (0.12447 0.1299 0)
# Probe 840 (0.12192 0.22188 0)
# Probe 841 (0.08318 0.24768 0)
# Probe 842 (0.12496 0.26866 0)
# Probe 843 (0.08479 0.10495 0)
# Probe 844 (0.13529 0.07973 0)
# Probe 845 (0.16888 0.10891 0)
# Probe 846 (0.60468 0.18175 0)
# Probe 847 (0.43535 0.21649 0)
# Probe 848 (0.52992 0.17438 0)
# Probe 849 (0.04135 0.52553 0)
# Probe 850 (0.66807 0.71927 0)
# Probe 851 (0.67803 0.68063 0)
# Probe 852 (0.6397 0.69315 0)
# Probe 853 (0.62884 0.73073 0)
# Probe 854 (0.61263 0.66329 0)
# Probe 855 (0.07802 0.68747 0)
# Probe 856 (0.04171 0.62408 0)
# Probe 857 (0.57243 0.67811 0)
# Probe 858 (0.75017 0.38012 0)
# Probe 859 (0.47573 0.66982 0)
# Probe 860 (0.47239 0.51024 0)
# Probe 861 (0.22309 0.04761 0)
# Probe 862 (0.45734 0.41031 0)
# Probe 863 (0.12658 0.90577 0)
# Probe 864 (0.08816 0.86693 0)
# Probe 865 (0.41225 0.35208 0)
# Probe 866 (0.95404 0.82566 0)
# Probe 867 (0.57551 0.95832 0)
# Probe 868 (0.44118 0.06824 0)
# Probe 869 (0.51461 0.54968 0)
# Probe 870 (0.52366 0.52371 0)
# Probe 871 (0.62329 0.95721 0)
# Probe 872 (0.37971 0.76092 0)
# Probe 873 (0.49948 0.36126 0)
# Probe 874 (0.28604 0.46256 0)
# Probe 875 (0.54544 0.37705 0)
# Probe 876 (0.16395 0.47981 0)
# Probe 877 (0.04226 0.77179 0)
# Probe 878 (0.64673 0.175 0)
# Probe 879 (0.17711 0.95878 0)
# Probe 880 (0.881 0.94939 0)
# Probe 881 (0.40485 0.66264 0)
# Probe 882 (0.45476 0.64393 0)
# Probe 883 (0.04297 0.8764 0)
# Probe 884 (0.09223 0.82274 0)
# Probe 885 (0.7243 0.95484 0)
# Probe 886 (0.31851 0.76525 0)
# Probe 887 (0.53569 0.56996 0)
# Probe 888 (0.08564 0.74224 0)
# Probe 889 (0.64936 0.12673 0)
# Probe 890 (0.50024 0.29517 0)
# Probe 891 (0.04243 0.1265 0)
# Probe 892 (0.72331 0.46199 0)
# Probe 893 (0.51203 0.35577 0)
# Probe 894 (0.33377 0.88217 0)
# Probe 895 (0.18796 0.58695 0)
# Probe 896 (0.68671 0.90992 0)
# Probe 897 (0.70013 0.86274 0)
# Probe 898 (0.80936 0.75168 0)
# Probe 899 (0.83816 0.127 0)
# Probe 900 (0.62259 0.17053 0)
# Probe 901 (0.46852 0.95881 0)
# Probe 902 (0.63485 0.83785 0)
# Probe 903 (0.10422 0.6013 0)
# Probe 904 (0.55426 0.38294 0)
# Probe 905 (0.27577 0.0408 0)
# Probe 906 (0.3838 0.03851 0)
# Probe 907 (0.33432 0.68609 0)
# Probe 908 (0.88169 0.16678 0)
# Probe 909 (0.91606 0.63894 0)
# Probe 910 (0.50752 0.3268 0)
# Probe 911 (0.50401 0.23319 0)
# Probe 912 (0.81725 0.87335 0)
# Probe 913 (0.85575 0.43741 0)
# Probe 914 (0.59181 0.52448 0)
# Probe 915 (0.70836 0.3551 0)
# Probe 916 (0.63307 0.40543 0)
# Probe 917 (0.22655 0.83343 0)
# Probe 918 (0.47871 0.76842 0)
# Probe 919 (0.53491 0.38064 0)
# Probe 920 (0.3679 0.21188 0)
# Probe 921 (0.95959 0.51999 0)
# Probe 922 (0.51621 0.75919 0)
# Probe 923 (0.18419 0.3985 0)
# Probe 924 (0.95336 0.66797 0)
# Probe 925 (0.71327 0.81943 0)
# Probe 926 (0.2328 0.68051 0)
# Probe 927 (0.40284 0.78771 0)
# Probe 928 (0.30061 0.07635 0)
# Probe 929 (0.08353 0.06072 0)
# Probe 930 (0.92116 0.04613 0)
# Probe 931 (0.45054 0.59235 0)
# Probe 932 (0.48302 0.91482 0)
# Probe 933 (0.07522 0.39421 0)
# Probe 934 (0.76301 0.35263 0)
# Probe 935 (0.78114 0.34468 0)
# Probe 936 (0.48889 0.63813 0)
# Probe 937 (0.36739 0.91092 0)
# Probe 938 (0.42452 0.30653 0)
# Probe 939 (0.3475 0.52393 0)
# Probe 940 (0.53722 0.2097 0)
# Probe 941 (0.92346 0.59684 0)
# Probe 942 (0.96034 0.92925 0)
# Probe 943 (0.07508 0.95876 0)
# Probe 944 (0.68751 0.48787 0)
# Probe 945 (0.35534 0.49309 0)
# Probe 946 (0.32804 0.50153 0)
# Probe 947 (0.14686 0.30648 0)
# Probe 948 (0.48542 0.44047 0)
# Probe 949 (0.82757 0.55428 0)
# Probe 950 (0.31537 0.45282 0)
# Probe 951 (0.3462 0.28271 0)
# Probe 952 (0.32917 0.26345 0)
# Probe 953 (0.31964 0.28873 0)
# Probe 954 (0.3137 0.36486 0)
# Probe 955 (0.61645 0.39854 0)
# Probe 956 (0.36085 0.23584 0)
# Probe 957 (0.60562 0.11117 0)
# Probe 958 (0.66821 0.62171 0)
# Probe 959 (0.30805 0.31472 0)
# Probe 960 (0.70666 0.61748 0)
# Probe 961 (0.69061 0.64988 0)
# Probe 962 (0.44446 0.2484 0)
# Probe 963 (0.18355 0.19725 0)
# Probe 964 (0.80233 0.91816 0)
# Probe 965 (0.59257 0.47977 0)
# Probe 966 (0.43604 0.34111 0)
# Probe 967 (0.41664 0.37351 0)
# Probe 968 (0.39666 0.52773 0)
# Probe 969 (0.64411 0.40221 0)
# Probe 970 (0.64111 0.41401 0)
# Probe 971 (0.20831 0.1286 0)