# Probe 0 (0 0 0)
# Probe 1 (1 0 0)
# Probe 2 (1 1 0)
# Probe 3 (0 1 0)
# Probe 4 (0.66 0.42 0)
# Probe 5 (0.56 0.32 0)
# Probe 6 (0.46 0.42 0)
# Probe 7 (0.56 0.52 0)
# Probe 8 (0.05 0 0)
# Probe 9 (0.1 0 0)
# Probe 10 (0.15 0 0)
# Probe 11 (0.2 0 0)
# Probe 12 (0.25 0 0)
# Probe 13 (0.3 0 0)
# Probe 14 (0.35 0 0)
# Probe 15 (0.4 0 0)
# Probe 16 (0.45 0 0)
# Probe 17 (0.5 0 0)
# Probe 18 (0.55 0 0)
# Probe 19 (0.6 0 0)
# Probe 20 (0.65 0 0)
# Probe 21 (0.7 0 0)
# Probe 22 (0.75 0 0)
# Probe 23 (0.8 0 0)
# Probe 24 (0.85 0 0)
# Probe 25 (0.9 0 0)
# Probe 26 (0.95 0 0)
# Probe 27 (1 0.05 0)
# Probe 28 (1 0.1 0)
# Probe 29 (1 0.15 0)
# Probe 30 (1 0.2 0)
# Probe 31 (1 0.25 0)
# Probe 32 (1 0.3 0)
# Probe 33 (1 0.35 0)
# Probe 34 (1 0.4 0)
# Probe 35 (1 0.45 0)
# Probe 36 (1 0.5 0)
# Probe 37 (1 0.55 0)
# Probe 38 (1 0.6 0)
# Probe 39 (1 0.65 0)
# Probe 40 (1 0.7 0)
# Probe 41 (1 0.75 0)
# Probe 42 (1 0.8 0)
# Probe 43 (1 0.85 0)
# Probe 44 (1 0.9 0)
# Probe 45 (1 0.95 0)
# Probe 46 (0.95 1 0)
# Probe 47 (0.9 1 0)
# Probe 48 (0.85 1 0)
# Probe 49 (0.8 1 0)
# Probe 50 (0.75 1 0)
# Probe 51 (0.7 1 0)
# Probe 52 (0.65 1 0)
# Probe 53 (0.6 1 0)
# Probe 54 (0.55 1 0)
# Probe 55 (0.5 1 0)
# Probe 56 (0.45 1 0)
# Probe 57 (0.4 1 0)
# Probe 58 (0.35 1 0)
# Probe 59 (0.3 1 0)
# Probe 60 (0.25 1 0)
# Probe 61 (0.2 1 0)
# Probe 62 (0.15 1 0)
# Probe 63 (0.1 1 0)
# Probe 64 (0.05 1 0)
# Probe 65 (0 0.95 0)
# Probe 66 (0 0.9 0)
# Probe 67 (0 0.85 0)
# Probe 68 (0 0.8 0)
# Probe 69 (0 0.75 0)
# Probe 70 (0 0.7 0)
# Probe 71 (0 0.65 0)
# Probe 72 (0 0.6 0)
# Probe 73 (0 0.55 0)
# Probe 74 (0 0.5 0)
# Probe 75 (0 0.45 0)
# Probe 76 (0 0.4 0)
# Probe 77 (0 0.35 0)
# Probe 78 (0 0.3 0)
# Probe 79 (0 0.25 0)
# Probe 80 (0 0.2 0)
# Probe 81 (0 0.15 0)
# Probe 82 (0 0.1 0)
# Probe 83 (0 0.05 0)
# Probe 84 (0.65952 0.4102 0)
# Probe 85 (0.65808 0.40049 0)
# Probe 86 (0.65569 0.39097 0)
# Probe 87 (0.65239 0.38173 0)
# Probe 88 (0.64819 0.37286 0)
# Probe 89 (0.64315 0.36444 0)
# Probe 90 (0.6373 0.35656 0)
# Probe 91 (0.63071 0.34929 0)
# Probe 92 (0.62344 0.3427 0)
# Probe 93 (0.61556 0.33685 0)
# Probe 94 (0.60714 0.33181 0)
# Probe 95 (0.59827 0.32761 0)
# Probe 96 (0.58903 0.32431 0)
# Probe 97 (0.57951 0.32192 0)
# Probe 98 (0.5698 0.32048 0)
# Probe 99 (0.5502 0.32048 0)
# Probe 100 (0.54049 0.32192 0)
# Probe 101 (0.53097 0.32431 0)
# Probe 102 (0.52173 0.32761 0)
# Probe 103 (0.51286 0.33181 0)
# Probe 104 (0.50444 0.33685 0)
# Probe 105 (0.49656 0.3427 0)
# Probe 106 (0.48929 0.34929 0)
# Probe 107 (0.4827 0.35656 0)
# Probe 108 (0.47685 0.36444 0)
# Probe 109 (0.47181 0.37286 0)
# Probe 110 (0.46761 0.38173 0)
# Probe 111 (0.46431 0.39097 0)
# Probe 112 (0.46192 0.40049 0)
# Probe 113 (0.46048 0.4102 0)
# Probe 114 (0.46048 0.4298 0)
# Probe 115 (0.46192 0.43951 0)
# Probe 116 (0.46431 0.44903 0)
# Probe 117 (0.46761 0.45827 0)
# Probe 118 (0.47181 0.46714 0)
# Probe 119 (0.47685 0.47556 0)
# Probe 120 (0.4827 0.48344 0)
# Probe 121 (0.48929 0.49071 0)
# Probe 122 (0.49656 0.4973 0)
# Probe 123 (0.50444 0.50315 0)
# Probe 124 (0.51286 0.50819 0)
# Probe 125 (0.52173 0.51239 0)
# Probe 126 (0.53097 0.51569 0)
# Probe 127 (0.54049 0.51808 0)
# Probe 128 (0.5502 0.51952 0)
# Probe 129 (0.5698 0.51952 0)
# Probe 130 (0.57951 0.51808 0)
# Probe 131 (0.58903 0.51569 0)
# Probe 132 (0.59827 0.51239 0)
# Probe 133 (0.60714 0.50819 0)
# Probe 134 (0.61556 0.50315 0)
# Probe 135 (0.62344 0.4973 0)
# Probe 136 (0.63071 0.49071 0)
# Probe 137 (0.6373 0.48344 0)
# Probe 138 (0.64315 0.47556 0)
# Probe 139 (0.64819 0.46714 0)
# Probe 140 (0.65239 0.45827 0)
# Probe 141 (0.65569 0.44903 0)
# Probe 142 (0.65808 0.43951 0)
# Probe 143 (0.65952 0.4298 0)
# Probe 144 (0.33043 0.9612 0)
# Probe 145 (0.04203 0.67523 0)
# Probe 146 (0.71948 0.95715 0)
# Probe 147 (0.04296 0.27331 0)
# Probe 148 (0.46873 0.95521 0)
# Probe 149 (0.04491 0.52287 0)
# Probe 150 (0.9555 0.67539 0)
# Probe 151 (0.32305 0.04595 0)
# Probe 152 (0.95954 0.22478 0)
# Probe 153 (0.72549 0.04196 0)
# Probe 154 (0.95655 0.5265 0)
# Probe 155 (0.95758 0.37571 0)
# Probe 156 (0.47756 0.04144 0)
# Probe 157 (0.04229 0.82353 0)
# Probe 158 (0.1721 0.04842 0)
# Probe 159 (0.95265 0.8245 0)
# Probe 160 (0.16964 0.95966 0)
# Probe 161 (0.57076 0.04391 0)
# Probe 162 (0.82281 0.04486 0)
# Probe 163 (0.0466 0.42607 0)
# Probe 164 (0.04293 0.1757 0)
# Probe 165 (0.57589 0.95798 0)
# Probe 166 (0.82514 0.96014 0)
# Probe 167 (0.94659 0.12333 0)
# Probe 168 (0.92296 0.95796 0)
# Probe 169 (0.03952 0.928 0)
# Probe 170 (0.04313 0.07764 0)
# Probe 171 (0.92444 0.04207 0)
# Probe 172 (0.52425 0.04138 0)
# Probe 173 (0.50189 0.08141 0)
# Probe 174 (0.4589 0.08141 0)
# Probe 175 (0.48044 0.11587 0)
# Probe 176 (0.53372 0.31489 0)
# Probe 177 (0.44419 0.11808 0)
# Probe 178 (0.46764 0.15142 0)
# Probe 179 (0.43079 0.15071 0)
# Probe 180 (0.50302 0.32669 0)
# Probe 181 (0.49595 0.14091 0)
# Probe 182 (0.44835 0.17895 0)
# Probe 183 (0.41681 0.17977 0)
# Probe 184 (0.43326 0.20502 0)
# Probe 185 (0.40391 0.20698 0)
# Probe 186 (0.47954 0.3471 0)
# Probe 187 (0.46175 0.20511 0)
# Probe 188 (0.41975 0.22867 0)
# Probe 189 (0.39138 0.23095 0)
# Probe 190 (0.37394 0.2085 0)
# Probe 191 (0.36291 0.2357 0)
# Probe 192 (0.38186 0.25813 0)
# Probe 193 (0.35187 0.26266 0)
# Probe 194 (0.46254 0.37272 0)
# Probe 195 (0.33483 0.24054 0)
# Probe 196 (0.32302 0.26771 0)
# Probe 197 (0.34062 0.29 0)
# Probe 198 (0.31217 0.29406 0)
# Probe 199 (0.32897 0.31616 0)
# Probe 200 (0.30158 0.3208 0)
# Probe 201 (0.31815 0.3427 0)
# Probe 202 (0.45177 0.40384 0)
# Probe 203 (0.29098 0.34735 0)
# Probe 204 (0.30853 0.36951 0)
# Probe 205 (0.28077 0.37386 0)
# Probe 206 (0.29823 0.39623 0)
# Probe 207 (0.27053 0.40034 0)
# Probe 208 (0.28807 0.42282 0)
# Probe 209 (0.45276 0.43568 0)
# Probe 210 (0.29246 0.27224 0)
# Probe 211 (0.25984 0.42691 0)
# Probe 212 (0.27809 0.44899 0)
# Probe 213 (0.30562 0.44491 0)
# Probe 214 (0.29593 0.47051 0)
# Probe 215 (0.32202 0.46429 0)
# Probe 216 (0.31758 0.49026 0)
# Probe 217 (0.46215 0.46642 0)
# Probe 218 (0.28604 0.49628 0)
# Probe 219 (0.30529 0.51853 0)
# Probe 220 (0.27557 0.52356 0)
# Probe 221 (0.29483 0.54595 0)
# Probe 222 (0.32373 0.54095 0)
# Probe 223 (0.31442 0.56768 0)
# Probe 224 (0.34236 0.5625 0)
# Probe 225 (0.33373 0.58884 0)
# Probe 226 (0.36014 0.58464 0)
# Probe 227 (0.35188 0.61061 0)
# Probe 228 (0.37838 0.60604 0)
# Probe 229 (0.37034 0.63159 0)
# Probe 230 (0.39765 0.62659 0)
# Probe 231 (0.34042 0.63383 0)
# Probe 232 (0.50428 0.51296 0)
# Probe 233 (0.4797 0.49278 0)
# Probe 234 (0.38693 0.65186 0)
# Probe 235 (0.4161 0.64753 0)
# Probe 236 (0.40526 0.67433 0)
# Probe 237 (0.43554 0.66932 0)
# Probe 238 (0.28797 0.57448 0)
# Probe 239 (0.42623 0.6976 0)
# Probe 240 (0.45538 0.69126 0)
# Probe 241 (0.39433 0.7027 0)
# Probe 242 (0.46417 0.66411 0)
# Probe 243 (0.48334 0.68511 0)
# Probe 244 (0.54412 0.52664 0)
# Probe 245 (0.49172 0.6593 0)
# Probe 246 (0.51047 0.67935 0)
# Probe 247 (0.50435 0.70853 0)
# Probe 248 (0.53082 0.69888 0)
# Probe 249 (0.5371 0.66848 0)
# Probe 250 (0.55598 0.69165 0)
# Probe 251 (0.57571 0.52744 0)
# Probe 252 (0.56407 0.66545 0)
# Probe 253 (0.58155 0.68633 0)
# Probe 254 (0.58995 0.65996 0)
# Probe 255 (0.60789 0.68064 0)
# Probe 256 (0.61649 0.65339 0)
# Probe 257 (0.63494 0.67359 0)
# Probe 258 (0.64262 0.64659 0)
# Probe 259 (0.61635 0.51272 0)
# Probe 260 (0.66231 0.66696 0)
# Probe 261 (0.66974 0.64014 0)
# Probe 262 (0.62841 0.70251 0)
# Probe 263 (0.54902 0.71361 0)
# Probe 264 (0.69038 0.66025 0)
# Probe 265 (0.69823 0.63251 0)
# Probe 266 (0.71977 0.65368 0)
# Probe 267 (0.7109 0.68375 0)
# Probe 268 (0.72742 0.62387 0)
# Probe 269 (0.64079 0.49338 0)
# Probe 270 (0.25223 0.37791 0)
# Probe 271 (0.41732 0.72712 0)
# Probe 272 (0.38448 0.73347 0)
# Probe 273 (0.52258 0.52253 0)
# Probe 274 (0.40472 0.60279 0)
# Probe 275 (0.59654 0.5223 0)
# Probe 276 (0.5719 0.64159 0)
# Probe 277 (0.33768 0.36285 0)
# Probe 278 (0.74209 0.67709 0)
# Probe 279 (0.73177 0.70959 0)
# Probe 280 (0.35494 0.31128 0)
# Probe 281 (0.70671 0.6046 0)
# Probe 282 (0.73534 0.5952 0)
# Probe 283 (0.71308 0.57991 0)
# Probe 284 (0.73824 0.56558 0)
# Probe 285 (0.65853 0.4656 0)
# Probe 286 (0.76311 0.58695 0)
# Probe 287 (0.76933 0.55819 0)
# Probe 288 (0.74904 0.53815 0)
# Probe 289 (0.77604 0.53042 0)
# Probe 290 (0.75602 0.512 0)
# Probe 291 (0.78217 0.50368 0)
# Probe 292 (0.76239 0.48566 0)
# Probe 293 (0.66841 0.42553 0)
# Probe 294 (0.66513 0.44633 0)
# Probe 295 (0.78787 0.47712 0)
# Probe 296 (0.76928 0.45917 0)
# Probe 297 (0.79423 0.45097 0)
# Probe 298 (0.7754 0.43286 0)
# Probe 299 (0.40845 0.75915 0)
# Probe 300 (0.37371 0.76603 0)
# Probe 301 (0.80034 0.42464 0)
# Probe 302 (0.7804 0.40611 0)
# Probe 303 (0.66217 0.38334 0)
# Probe 304 (0.66816 0.4034 0)
# Probe 305 (0.79258 0.57852 0)
# Probe 306 (0.80598 0.39803 0)
# Probe 307 (0.78581 0.3792 0)
# Probe 308 (0.81307 0.37019 0)
# Probe 309 (0.79161 0.35119 0)
# Probe 310 (0.65083 0.61713 0)
# Probe 311 (0.76664 0.70194 0)
# Probe 312 (0.75693 0.73577 0)
# Probe 313 (0.76682 0.36148 0)
# Probe 314 (0.77085 0.33367 0)
# Probe 315 (0.61605 0.32725 0)
# Probe 316 (0.6403 0.34722 0)
# Probe 317 (0.59836 0.317 0)
# Probe 318 (0.57743 0.3126 0)
# Probe 319 (0.55468 0.31175 0)
# Probe 320 (0.79707 0.32257 0)
# Probe 321 (0.77484 0.30383 0)
# Probe 322 (0.74553 0.31682 0)
# Probe 323 (0.75024 0.28511 0)
# Probe 324 (0.7796 0.27382 0)
# Probe 325 (0.7551 0.25545 0)
# Probe 326 (0.72642 0.26595 0)
# Probe 327 (0.73104 0.23757 0)
# Probe 328 (0.70386 0.24831 0)
# Probe 329 (0.78323 0.24222 0)
# Probe 330 (0.70764 0.2201 0)
# Probe 331 (0.68205 0.23147 0)
# Probe 332 (0.68491 0.20139 0)
# Probe 333 (0.65669 0.21844 0)
# Probe 334 (0.35022 0.53607 0)
# Probe 335 (0.79308 0.72695 0)
# Probe 336 (0.66078 0.18408 0)
# Probe 337 (0.63435 0.19786 0)
# Probe 338 (0.73241 0.51888 0)
# Probe 339 (0.81711 0.44275 0)
# Probe 340 (0.71963 0.74368 0)
# Probe 341 (0.74614 0.7706 0)
# Probe 342 (0.70837 0.77877 0)
# Probe 343 (0.35065 0.73917 0)
# Probe 344 (0.33863 0.77294 0)
# Probe 345 (0.31496 0.74341 0)
# Probe 346 (0.3022 0.77974 0)
# Probe 347 (0.27753 0.74894 0)
# Probe 348 (0.26415 0.78706 0)
# Probe 349 (0.23888 0.7566 0)
# Probe 350 (0.39655 0.7929 0)
# Probe 351 (0.43299 0.78533 0)
# Probe 352 (0.7147 0.18959 0)
# Probe 353 (0.63042 0.22608 0)
# Probe 354 (0.60944 0.20995 0)
# Probe 355 (0.68078 0.25848 0)
# Probe 356 (0.75695 0.41567 0)
# Probe 357 (0.2248 0.79486 0)
# Probe 358 (0.81017 0.26259 0)
# Probe 359 (0.81422 0.22818 0)
# Probe 360 (0.25254 0.71815 0)
# Probe 361 (0.3988 0.15299 0)
# Probe 362 (0.2139 0.72595 0)
# Probe 363 (0.60661 0.23547 0)
# Probe 364 (0.58642 0.22114 0)
# Probe 365 (0.61163 0.18272 0)
# Probe 366 (0.7462 0.46857 0)
# Probe 367 (0.24894 0.4534 0)
# Probe 368 (0.80356 0.52116 0)
# Probe 369 (0.8041 0.68875 0)
# Probe 370 (0.27287 0.32379 0)
# Probe 371 (0.22761 0.68852 0)
# Probe 372 (0.47375 0.6392 0)
# Probe 373 (0.58447 0.24465 0)
# Probe 374 (0.56549 0.23148 0)
# Probe 375 (0.23032 0.43045 0)
# Probe 376 (0.21832 0.45949 0)
# Probe 377 (0.19779 0.43279 0)
# Probe 378 (0.18448 0.46439 0)
# Probe 379 (0.33134 0.44165 0)
# Probe 380 (0.3465 0.45887 0)
# Probe 381 (0.35529 0.43949 0)
# Probe 382 (0.36905 0.45578 0)
# Probe 383 (0.37691 0.4373 0)
# Probe 384 (0.38977 0.45279 0)
# Probe 385 (0.3959 0.43457 0)
# Probe 386 (0.38464 0.42024 0)
# Probe 387 (0.38262 0.47095 0)
# Probe 388 (0.40129 0.46702 0)
# Probe 389 (0.39545 0.48484 0)
# Probe 390 (0.41297 0.48122 0)
# Probe 391 (0.40746 0.49817 0)
# Probe 392 (0.42443 0.49474 0)
# Probe 393 (0.419 0.5113 0)
# Probe 394 (0.83496 0.39046 0)
# Probe 395 (0.8425 0.35991 0)
# Probe 396 (0.73483 0.80749 0)
# Probe 397 (0.69676 0.81513 0)
# Probe 398 (0.77347 0.79909 0)
# Probe 399 (0.49915 0.63493 0)
# Probe 400 (0.484 0.61696 0)
# Probe 401 (0.50544 0.61247 0)
# Probe 402 (0.49231 0.59658 0)
# Probe 403 (0.51127 0.59248 0)
# Probe 404 (0.499 0.57532 0)
# Probe 405 (0.48049 0.58056 0)
# Probe 406 (0.48579 0.56288 0)
# Probe 407 (0.46947 0.56634 0)
# Probe 408 (0.47612 0.55005 0)
# Probe 409 (0.51735 0.5744 0)
# Probe 410 (0.52905 0.58791 0)
# Probe 411 (0.4205 0.82064 0)
# Probe 412 (0.45622 0.81217 0)
# Probe 413 (0.83072 0.71771 0)
# Probe 414 (0.60566 0.26071 0)
# Probe 415 (0.40258 0.41828 0)
# Probe 416 (0.39221 0.40404 0)
# Probe 417 (0.32734 0.80853 0)
# Probe 418 (0.43553 0.5073 0)
# Probe 419 (0.43081 0.52446 0)
# Probe 420 (0.25129 0.82644 0)
# Probe 421 (0.56485 0.25618 0)
# Probe 422 (0.54609 0.24163 0)
# Probe 423 (0.18911 0.69474 0)
# Probe 424 (0.20277 0.65781 0)
# Probe 425 (0.1735 0.72911 0)
# Probe 426 (0.56559 0.20685 0)
# Probe 427 (0.54397 0.26198 0)
# Probe 428 (0.52756 0.25028 0)
# Probe 429 (0.5295 0.22888 0)
# Probe 430 (0.52585 0.26925 0)
# Probe 431 (0.51001 0.25864 0)
# Probe 432 (0.50979 0.27906 0)
# Probe 433 (0.49373 0.2667 0)
# Probe 434 (0.49191 0.28451 0)
# Probe 435 (0.4772 0.27401 0)
# Probe 436 (0.47528 0.29188 0)
# Probe 437 (0.46074 0.28148 0)
# Probe 438 (0.4592 0.29929 0)
# Probe 439 (0.53404 0.57125 0)
# Probe 440 (0.54555 0.58295 0)
# Probe 441 (0.55029 0.5676 0)
# Probe 442 (0.5615 0.57872 0)
# Probe 443 (0.44431 0.28916 0)
# Probe 444 (0.44264 0.30724 0)
# Probe 445 (0.40931 0.40271 0)
# Probe 446 (0.39938 0.38849 0)
# Probe 447 (0.41604 0.38693 0)
# Probe 448 (0.40616 0.37296 0)
# Probe 449 (0.41284 0.52837 0)
# Probe 450 (0.42476 0.54333 0)
# Probe 451 (0.84425 0.68199 0)
# Probe 452 (0.41837 0.46452 0)
# Probe 453 (0.67072 0.78632 0)
# Probe 454 (0.65859 0.82258 0)
# Probe 455 (0.63327 0.79352 0)
# Probe 456 (0.62082 0.82964 0)
# Probe 457 (0.64565 0.85695 0)
# Probe 458 (0.7617 0.83785 0)
# Probe 459 (0.80084 0.82909 0)
# Probe 460 (0.42285 0.37164 0)
# Probe 461 (0.41283 0.35791 0)
# Probe 462 (0.42931 0.35826 0)
# Probe 463 (0.59616 0.8011 0)
# Probe 464 (0.58351 0.83707 0)
# Probe 465 (0.16275 0.43756 0)
# Probe 466 (0.17705 0.40489 0)
# Probe 467 (0.84187 0.25046 0)
# Probe 468 (0.84764 0.21437 0)
# Probe 469 (0.81787 0.19123 0)
# Probe 470 (0.39501 0.35899 0)
# Probe 471 (0.40522 0.34146 0)
# Probe 472 (0.20989 0.83464 0)
# Probe 473 (0.42688 0.29667 0)
# Probe 474 (0.16404 0.66382 0)
# Probe 475 (0.17782 0.62669 0)
# Probe 476 (0.5662 0.56403 0)
# Probe 477 (0.57751 0.57564 0)
# Probe 478 (0.58142 0.55814 0)
# Probe 479 (0.59321 0.5718 0)
# Probe 480 (0.58766 0.58544 0)
# Probe 481 (0.14935 0.47148 0)
# Probe 482 (0.1733 0.50031 0)
# Probe 483 (0.59805 0.55648 0)
# Probe 484 (0.60924 0.56851 0)
# Probe 485 (0.61427 0.55282 0)
# Probe 486 (0.62545 0.56494 0)
# Probe 487 (0.62962 0.54968 0)
# Probe 488 (0.64186 0.56115 0)
# Probe 489 (0.645 0.54293 0)
# Probe 490 (0.41209 0.43076 0)
# Probe 491 (0.13975 0.63182 0)
# Probe 492 (0.46233 0.58382 0)
# Probe 493 (0.49091 0.5472 0)
# Probe 494 (0.23806 0.8677 0)
# Probe 495 (0.85362 0.17737 0)
# Probe 496 (0.55848 0.80815 0)
# Probe 497 (0.5448 0.84563 0)
# Probe 498 (0.48228 0.53535 0)
# Probe 499 (0.37412 0.40573 0)
# Probe 500 (0.52298 0.56061 0)
# Probe 501 (0.65937 0.55753 0)
# Probe 502 (0.66419 0.53989 0)
# Probe 503 (0.44501 0.84874 0)
# Probe 504 (0.40739 0.85712 0)
# Probe 505 (0.54078 0.59982 0)
# Probe 506 (0.47373 0.30855 0)
# Probe 507 (0.82228 0.15353 0)
# Probe 508 (0.55784 0.2747 0)
# Probe 509 (0.24057 0.65152 0)
# Probe 510 (0.14008 0.40896 0)
# Probe 511 (0.15516 0.37362 0)
# Probe 512 (0.11701 0.37879 0)
# Probe 513 (0.133 0.34305 0)
# Probe 514 (0.17095 0.33818 0)
# Probe 515 (0.14923 0.30752 0)
# Probe 516 (0.18658 0.30341 0)
# Probe 517 (0.16428 0.2719 0)
# Probe 518 (0.20221 0.26872 0)
# Probe 519 (0.1799 0.2365 0)
# Probe 520 (0.2185 0.23304 0)
# Probe 521 (0.196 0.20065 0)
# Probe 522 (0.23611 0.19616 0)
# Probe 523 (0.20924 0.16239 0)
# Probe 524 (0.25298 0.15897 0)
# Probe 525 (0.1677 0.1669 0)
# Probe 526 (0.13832 0.24174 0)
# Probe 527 (0.41896 0.087 0)
# Probe 528 (0.15328 0.59745 0)
# Probe 529 (0.19224 0.59334 0)
# Probe 530 (0.40643 0.54648 0)
# Probe 531 (0.11269 0.60166 0)
# Probe 532 (0.46174 0.26305 0)
# Probe 533 (0.85388 0.13767 0)
# Probe 534 (0.37734 0.48881 0)
# Probe 535 (0.65272 0.52594 0)
# Probe 536 (0.66955 0.52208 0)
# Probe 537 (0.68236 0.53556 0)
# Probe 538 (0.68611 0.51749 0)
# Probe 539 (0.67388 0.50522 0)
# Probe 540 (0.68904 0.50018 0)
# Probe 541 (0.44062 0.49222 0)
# Probe 542 (0.45018 0.50353 0)
# Probe 543 (0.46855 0.77745 0)
# Probe 544 (0.50321 0.29541 0)
# Probe 545 (0.87062 0.70923 0)
# Probe 546 (0.85968 0.74851 0)
# Probe 547 (0.7857 0.60932 0)
# Probe 548 (0.81697 0.60028 0)
# Probe 549 (0.49403 0.24611 0)
# Probe 550 (0.61996 0.5824 0)
# Probe 551 (0.86755 0.38175 0)
# Probe 552 (0.87546 0.34791 0)
# Probe 553 (0.13511 0.5061 0)
# Probe 554 (0.46682 0.53746 0)
# Probe 555 (0.47408 0.52377 0)
# Probe 556 (0.22518 0.12425 0)
# Probe 557 (0.32852 0.71101 0)
# Probe 558 (0.26938 0.12172 0)
# Probe 559 (0.29398 0.15488 0)
# Probe 560 (0.78633 0.16833 0)
# Probe 561 (0.7903 0.13007 0)
# Probe 562 (0.90043 0.73889 0)
# Probe 563 (0.46139 0.61919 0)
# Probe 564 (0.43217 0.38462 0)
# Probe 565 (0.67747 0.48931 0)
# Probe 566 (0.69257 0.48402 0)
# Probe 567 (0.52046 0.62854 0)
# Probe 568 (0.5554 0.55308 0)
# Probe 569 (0.34326 0.422 0)
# Probe 570 (0.08945 0.34328 0)
# Probe 571 (0.45594 0.49015 0)
# Probe 572 (0.60833 0.76638 0)
# Probe 573 (0.42877 0.27741 0)
# Probe 574 (0.78875 0.86948 0)
# Probe 575 (0.83243 0.86006 0)
# Probe 576 (0.65442 0.57568 0)
# Probe 577 (0.88223 0.6725 0)
# Probe 578 (0.31044 0.11879 0)
# Probe 579 (0.1107 0.47729 0)
# Probe 580 (0.67914 0.47279 0)
# Probe 581 (0.69597 0.4674 0)
# Probe 582 (0.27999 0.85889 0)
# Probe 583 (0.70881 0.4788 0)
# Probe 584 (0.12202 0.6714 0)
# Probe 585 (0.83461 0.28223 0)
# Probe 586 (0.871 0.27385 0)
# Probe 587 (0.88731 0.78059 0)
# Probe 588 (0.75512 0.14481 0)
# Probe 589 (0.18344 0.80212 0)
# Probe 590 (0.16657 0.84278 0)
# Probe 591 (0.13589 0.80671 0)
# Probe 592 (0.12407 0.85043 0)
# Probe 593 (0.57088 0.87727 0)
# Probe 594 (0.53198 0.88178 0)
# Probe 595 (0.74858 0.87651 0)
# Probe 596 (0.71242 0.46197 0)
# Probe 597 (0.69922 0.45068 0)
# Probe 598 (0.71525 0.4448 0)
# Probe 599 (0.7017 0.43474 0)
# Probe 600 (0.71793 0.42787 0)
# Probe 601 (0.70293 0.41845 0)
# Probe 602 (0.72054 0.41078 0)
# Probe 603 (0.7048 0.40087 0)
# Probe 604 (0.72323 0.39317 0)
# Probe 605 (0.70901 0.38218 0)
# Probe 606 (0.69296 0.38797 0)
# Probe 607 (0.6959 0.37225 0)
# Probe 608 (0.65317 0.36438 0)
# Probe 609 (0.71123 0.3642 0)
# Probe 610 (0.69467 0.35515 0)
# Probe 611 (0.71319 0.34617 0)
# Probe 612 (0.69725 0.33562 0)
# Probe 613 (0.68061 0.34265 0)
# Probe 614 (0.6822 0.32476 0)
# Probe 615 (0.70219 0.31454 0)
# Probe 616 (0.66686 0.33248 0)
# Probe 617 (0.66765 0.3152 0)
# Probe 618 (0.65149 0.32488 0)
# Probe 619 (0.65338 0.30611 0)
# Probe 620 (0.63891 0.31391 0)
# Probe 621 (0.63991 0.2971 0)
# Probe 622 (0.62432 0.30648 0)
# Probe 623 (0.62625 0.28809 0)
# Probe 624 (0.60927 0.29425 0)
# Probe 625 (0.64178 0.2797 0)
# Probe 626 (0.66743 0.29981 0)
# Probe 627 (0.41982 0.56187 0)
# Probe 628 (0.3834 0.34361 0)
# Probe 629 (0.39064 0.32618 0)
# Probe 630 (0.43418 0.887 0)
# Probe 631 (0.39396 0.89579 0)
# Probe 632 (0.26686 0.90041 0)
# Probe 633 (0.39375 0.53099 0)
# Probe 634 (0.24658 0.08588 0)
# Probe 635 (0.44553 0.48039 0)
# Probe 636 (0.61783 0.53721 0)
# Probe 637 (0.20821 0.33399 0)
# Probe 638 (0.82432 0.56743 0)
# Probe 639 (0.85062 0.59082 0)
# Probe 640 (0.85807 0.55578 0)
# Probe 641 (0.88649 0.58023 0)
# Probe 642 (0.37597 0.36153 0)
# Probe 643 (0.41024 0.28553 0)
# Probe 644 (0.25663 0.50066 0)
# Probe 645 (0.24511 0.52936 0)
# Probe 646 (0.4916 0.802 0)
# Probe 647 (0.50232 0.76891 0)
# Probe 648 (0.42574 0.31544 0)
# Probe 649 (0.44102 0.32615 0)
# Probe 650 (0.67343 0.57248 0)
# Probe 651 (0.33155 0.15194 0)
# Probe 652 (0.35144 0.1154 0)
# Probe 653 (0.49703 0.53395 0)
# Probe 654 (0.39863 0.56562 0)
# Probe 655 (0.37081 0.8656 0)
# Probe 656 (0.72991 0.43832 0)
# Probe 657 (0.88055 0.20711 0)
# Probe 658 (0.66092 0.49462 0)
# Probe 659 (0.58965 0.54478 0)
# Probe 660 (0.75821 0.10698 0)
# Probe 661 (0.72287 0.12142 0)
# Probe 662 (0.68761 0.44091 0)
# Probe 663 (0.85885 0.41487 0)
# Probe 664 (0.89426 0.40577 0)
# Probe 665 (0.8832 0.44206 0)
# Probe 666 (0.91823 0.43234 0)
# Probe 667 (0.91468 0.46863 0)
# Probe 668 (0.87349 0.47875 0)
# Probe 669 (0.89871 0.5051 0)
# Probe 670 (0.31724 0.19074 0)
# Probe 671 (0.36137 0.34876 0)
# Probe 672 (0.25631 0.2283 0)
# Probe 673 (0.44016 0.5549 0)
# Probe 674 (0.43373 0.5753 0)
# Probe 675 (0.16383 0.56292 0)
# Probe 676 (0.45818 0.52461 0)
# Probe 677 (0.2258 0.50619 0)
# Probe 678 (0.50542 0.54634 0)
# Probe 679 (0.70228 0.53374 0)
# Probe 680 (0.3122 0.89202 0)
# Probe 681 (0.80785 0.63178 0)
# Probe 682 (0.15293 0.88393 0)
# Probe 683 (0.63593 0.3285 0)
# Probe 684 (0.68227 0.38004 0)
# Probe 685 (0.77645 0.90881 0)
# Probe 686 (0.46328 0.50243 0)
# Probe 687 (0.47943 0.74363 0)
# Probe 688 (0.66757 0.59201 0)
# Probe 689 (0.72944 0.3567 0)
# Probe 690 (0.66681 0.34904 0)
# Probe 691 (0.40928 0.26562 0)
# Probe 692 (0.42215 0.92724 0)
# Probe 693 (0.21505 0.53484 0)
# Probe 694 (0.2368 0.55825 0)
# Probe 695 (0.10692 0.89455 0)
# Probe 696 (0.62642 0.26983 0)
# Probe 697 (0.64341 0.26054 0)
# Probe 698 (0.22527 0.91091 0)
# Probe 699 (0.47615 0.87771 0)
# Probe 700 (0.77834 0.63912 0)
# Probe 701 (0.81011 0.79259 0)
# Probe 702 (0.10141 0.41531 0)
# Probe 703 (0.4226 0.33273 0)
# Probe 704 (0.58517 0.26589 0)
# Probe 705 (0.92905 0.77428 0)
# Probe 706 (0.67669 0.35895 0)
# Probe 707 (0.54124 0.27995 0)
# Probe 708 (0.55481 0.29186 0)
# Probe 709 (0.56941 0.2865 0)
# Probe 710 (0.5394 0.29404 0)
# Probe 711 (0.52705 0.28553 0)
# Probe 712 (0.51986 0.30289 0)
# Probe 713 (0.50945 0.56095 0)
# Probe 714 (0.73675 0.49473 0)
# Probe 715 (0.51233 0.53116 0)
# Probe 716 (0.51962 0.54146 0)
# Probe 717 (0.56874 0.54929 0)
# Probe 718 (0.55881 0.53891 0)
# Probe 719 (0.54538 0.5431 0)
# Probe 720 (0.8734 0.61605 0)
# Probe 721 (0.91658 0.60993 0)
# Probe 722 (0.7247 0.53904 0)
# Probe 723 (0.6933 0.54962 0)
# Probe 724 (0.65817 0.50966 0)
# Probe 725 (0.64297 0.51418 0)
# Probe 726 (0.63768 0.52723 0)
# Probe 727 (0.67844 0.39432 0)
# Probe 728 (0.68978 0.40057 0)
# Probe 729 (0.68768 0.41878 0)
# Probe 730 (0.5984 0.27939 0)
# Probe 731 (0.37742 0.93632 0)
# Probe 732 (0.48931 0.30253 0)
# Probe 733 (0.48636 0.31737 0)
# Probe 734 (0.47312 0.32358 0)
# Probe 735 (0.50196 0.30878 0)
# Probe 736 (0.48474 0.3293 0)
# Probe 737 (0.60347 0.54189 0)
# Probe 738 (0.66516 0.48096 0)
# Probe 739 (0.60903 0.31008 0)
# Probe 740 (0.59769 0.30454 0)
# Probe 741 (0.56717 0.29895 0)
# Probe 742 (0.57942 0.29457 0)
# Probe 743 (0.44796 0.22781 0)
# Probe 744 (0.47541 0.2297 0)
# Probe 745 (0.4884 0.20666 0)
# Probe 746 (0.4775 0.1826 0)
# Probe 747 (0.50739 0.18351 0)
# Probe 748 (0.54376 0.08725 0)
# Probe 749 (0.58716 0.08596 0)
# Probe 750 (0.567 0.11949 0)
# Probe 751 (0.60266 0.12077 0)
# Probe 752 (0.6273 0.09065 0)
# Probe 753 (0.64093 0.13034 0)
# Probe 754 (0.6643 0.097 0)
# Probe 755 (0.57958 0.14812 0)
# Probe 756 (0.54919 0.14856 0)
# Probe 757 (0.65114 0.06135 0)
# Probe 758 (0.43129 0.4779 0)
# Probe 759 (0.434 0.46205 0)
# Probe 760 (0.42495 0.45132 0)
# Probe 761 (0.43826 0.45085 0)
# Probe 762 (0.43319 0.44053 0)
# Probe 763 (0.44703 0.45971 0)
# Probe 764 (0.40882 0.44892 0)
# Probe 765 (0.71809 0.50483 0)
# Probe 766 (0.09338 0.51513 0)
# Probe 767 (0.06959 0.48192 0)
# Probe 768 (0.08813 0.56362 0)
# Probe 769 (0.12804 0.54201 0)
# Probe 770 (0.4187 0.4158 0)
# Probe 771 (0.42752 0.40134 0)
# Probe 772 (0.43196 0.41419 0)
# Probe 773 (0.4425 0.39596 0)
# Probe 774 (0.44633 0.38399 0)
# Probe 775 (0.43801 0.37171 0)
# Probe 776 (0.44517 0.35745 0)
# Probe 777 (0.45834 0.31607 0)
# Probe 778 (0.46084 0.3337 0)
# Probe 779 (0.68315 0.4557 0)
# Probe 780 (0.27549 0.19251 0)
# Probe 781 (0.29202 0.22343 0)
# Probe 782 (0.33334 0.51481 0)
# Probe 783 (0.35558 0.5115 0)
# Probe 784 (0.34396 0.49268 0)
# Probe 785 (0.53818 0.55536 0)
# Probe 786 (0.7007 0.27401 0)
# Probe 787 (0.71914 0.29327 0)
# Probe 788 (0.95786 0.48153 0)
# Probe 789 (0.92305 0.56357 0)
# Probe 790 (0.7509 0.18453 0)
# Probe 791 (0.79629 0.086 0)
# Probe 792 (0.20123 0.08538 0)
# Probe 793 (0.6816 0.13224 0)
# Probe 794 (0.37038 0.28605 0)
# Probe 795 (0.65326 0.4841 0)
# Probe 796 (0.95229 0.73029 0)
# Probe 797 (0.48838 0.52226 0)
# Probe 798 (0.48045 0.5117 0)
# Probe 799 (0.44943 0.34331 0)
# Probe 800 (0.46118 0.34838 0)
# Probe 801 (0.37005 0.55808 0)
# Probe 802 (0.51407 0.1168 0)
# Probe 803 (0.75919 0.38897 0)
# Probe 804 (0.65334 0.34317 0)
# Probe 805 (0.32476 0.38972 0)
# Probe 806 (0.34987 0.38603 0)
# Probe 807 (0.45101 0.54024 0)
# Probe 808 (0.62432 0.62737 0)
# Probe 809 (0.59706 0.63083 0)
# Probe 810 (0.57603 0.62101 0)
# Probe 811 (0.55836 0.62344 0)
# Probe 812 (0.6112 0.61273 0)
# Probe 813 (0.55023 0.64353 0)
# Probe 814 (0.62928 0.60106 0)
# Probe 815 (0.56753 0.60715 0)
# Probe 816 (0.43557 0.25291 0)
# Probe 817 (0.45942 0.36041 0)
# Probe 818 (0.25362 0.94458 0)
# Probe 819 (0.19151 0.3685 0)
# Probe 820 (0.45169 0.42523 0)
# Probe 821 (0.44234 0.43162 0)
# Probe 822 (0.45494 0.44566 0)
# Probe 823 (0.4422 0.75209 0)
# Probe 824 (0.84941 0.32832 0)
# Probe 825 (0.56509 0.52852 0)
# Probe 826 (0.58625 0.52539 0)
# Probe 827 (0.47303 0.48448 0)
# Probe 828 (0.48671 0.5019 0)
# Probe 829 (0.49603 0.50725 0)
# Probe 830 (0.62812 0.51659 0)
# Probe 831 (0.46723 0.47548 0)
# Probe 832 (0.88194 0.3135 0)
# Probe 833 (0.91588 0.2833 0)
# Probe 834 (0.91734 0.32405 0)
# Probe 835 (0.95931 0.26861 0)
# Probe 836 (0.89945 0.24177 0)
# Probe 837 (0.45405 0.39301 0)
# Probe 838 (0.45109 0.41414 0)
# Probe 839 (0.52367 0.31821 0)
# Probe 840 (0.51367 0.32246 0)
# Probe 841 (0.55468 0.52825 0)
# Probe 842 (0.63398 0.50349 0)
# Probe 843 (0.42219 0.62225 0)
# Probe 844 (0.44512 0.63973 0)
# Probe 845 (0.45757 0.38276 0)
# Probe 846 (0.47113 0.35531 0)
# Probe 847 (0.60648 0.51805 0)
# Probe 848 (0.64486 0.75903 0)
# Probe 849 (0.68215 0.75156 0)
# Probe 850 (0.65733 0.72178 0)
# Probe 851 (0.69165 0.71738 0)
# Probe 852 (0.43227 0.04489 0)
# Probe 853 (0.39254 0.05668 0)
# Probe 854 (0.6716 0.4625 0)
# Probe 855 (0.51279 0.5185 0)
# Probe 856 (0.53346 0.5249 0)
# Probe 857 (0.7756 0.04087 0)
# Probe 858 (0.85216 0.09237 0)
# Probe 859 (0.87547 0.04467 0)
# Probe 860 (0.90828 0.08371 0)
# Probe 861 (0.21667 0.62309 0)
# Probe 862 (0.25405 0.61635 0)
# Probe 863 (0.27648 0.64503 0)
# Probe 864 (0.28856 0.61023 0)
# Probe 865 (0.26487 0.68037 0)
# Probe 866 (0.29758 0.66882 0)
# Probe 867 (0.52521 0.95796 0)
# Probe 868 (0.66855 0.41466 0)
# Probe 869 (0.66725 0.43592 0)
# Probe 870 (0.22308 0.30022 0)
# Probe 871 (0.23727 0.26378 0)
# Probe 872 (0.57573 0.77358 0)
# Probe 873 (0.58595 0.73985 0)
# Probe 874 (0.91404 0.36669 0)
# Probe 875 (0.62488 0.33282 0)
# Probe 876 (0.62622 0.32115 0)
# Probe 877 (0.85963 0.51513 0)
# Probe 878 (0.8387 0.48715 0)
# Probe 879 (0.29347 0.70853 0)
# Probe 880 (0.34402 0.68199 0)
# Probe 881 (0.63278 0.3397 0)
# Probe 882 (0.31846 0.41731 0)
# Probe 883 (0.64749 0.35524 0)
# Probe 884 (0.65815 0.37359 0)
# Probe 885 (0.564 0.17758 0)
# Probe 886 (0.54421 0.31281 0)
# Probe 887 (0.50161 0.9175 0)
# Probe 888 (0.60768 0.32194 0)
# Probe 889 (0.58836 0.31399 0)
# Probe 890 (0.6206 0.73328 0)
# Probe 891 (0.66581 0.39286 0)
# Probe 892 (0.21555 0.39766 0)
# Probe 893 (0.78513 0.20673 0)
# Probe 894 (0.53343 0.54271 0)
# Probe 895 (0.9578 0.17465 0)
# Probe 896 (0.92194 0.15761 0)
# Probe 897 (0.35285 0.18244 0)
# Probe 898 (0.51507 0.65229 0)
# Probe 899 (0.0427 0.22462 0)
# Probe 900 (0.08305 0.19842 0)
# Probe 901 (0.08517 0.15243 0)
# Probe 902 (0.09087 0.24588 0)
# Probe 903 (0.08455 0.29561 0)
# Probe 904 (0.04443 0.32155 0)
# Probe 905 (0.04361 0.37101 0)
# Probe 906 (0.275 0.0433 0)
# Probe 907 (0.95895 0.62858 0)
# Probe 908 (0.66389 0.36378 0)
# Probe 909 (0.04301 0.12598 0)
# Probe 910 (0.08672 0.10134 0)
# Probe 911 (0.13315 0.1269 0)
# Probe 912 (0.12981 0.07562 0)
# Probe 913 (0.08239 0.04696 0)
# Probe 914 (0.12419 0.17692 0)
# Probe 915 (0.22415 0.04383 0)
# Probe 916 (0.50689 0.73802 0)
# Probe 917 (0.53041 0.75855 0)
# Probe 918 (0.62378 0.95738 0)
# Probe 919 (0.60181 0.91126 0)
# Probe 920 (0.64835 0.91819 0)
# Probe 921 (0.67177 0.95677 0)
# Probe 922 (0.6921 0.91883 0)
# Probe 923 (0.04264 0.724 0)
# Probe 924 (0.08297 0.69839 0)
# Probe 925 (0.08425 0.74635 0)
# Probe 926 (0.12645 0.72431 0)
# Probe 927 (0.04268 0.773 0)
# Probe 928 (0.08691 0.79414 0)
# Probe 929 (0.03976 0.62666 0)
# Probe 930 (0.62589 0.24938 0)
# Probe 931 (0.72856 0.33571 0)
# Probe 932 (0.61581 0.52373 0)
# Probe 933 (0.078 0.6511 0)
# Probe 934 (0.57136 0.53735 0)
# Probe 935 (0.60578 0.52936 0)
# Probe 936 (0.87484 0.95766 0)
# Probe 937 (0.90005 0.91456 0)
# Probe 938 (0.95392 0.9189 0)
# Probe 939 (0.92503 0.87468 0)
# Probe 940 (0.84876 0.91394 0)
# Probe 941 (0.32056 0.8497 0)
# Probe 942 (0.30925 0.63704 0)
# Probe 943 (0.50686 0.85131 0)
# Probe 944 (0.36269 0.70687 0)
# Probe 945 (0.04956 0.88109 0)
# Probe 946 (0.11837 0.95113 0)
# Probe 947 (0.4761 0.3366 0)
# Probe 948 (0.63702 0.16679 0)
# Probe 949 (0.77221 0.95707 0)
# Probe 950 (0.66102 0.24748 0)
# Probe 951 (0.59426 0.53312 0)
# Probe 952 (0.8777 0.87252 0)
# Probe 953 (0.87136 0.82549 0)
# Probe 954 (0.59962 0.70896 0)
# Probe 955 (0.55666 0.91742 0)
# Probe 956 (0.2909 0.08358 0)
# Probe 957 (0.1837 0.12558 0)
# Probe 958 (0.53326 0.17422 0)
# Probe 959 (0.35322 0.90101 0)
# Probe 960 (0.52729 0.79299 0)
# Probe 961 (0.45668 0.45667 0)
# Probe 962 (0.51304 0.21068 0)
# Probe 963 (0.66022 0.27085 0)
# Probe 964 (0.92034 0.65131 0)
# Probe 965 (0.34578 0.21212 0)
# Probe 966 (0.9602 0.41893 0)
# Probe 967 (0.38449 0.82793 0)
# Probe 968 (0.803 0.29293 0)
# Probe 969 (0.66271 0.45572 0)
# Probe 970 (0.67734 0.43236 0)
# Probe 971 (0.19576 0.87586 0)
# Probe 972 (0.25966 0.29188 0)