# Probe 0 (0 0 0)
# Probe 1 (1 0 0)
# Probe 2 (1 1 0)
# Probe 3 (0 1 0)
# Probe 4 (0.62 0.54 0)
# Probe 5 (0.52 0.44 0)
# Probe 6 (0.42 0.54 0)
# Probe 7 (0.52 0.64 0)
# Probe 8 (0.05 0 0)
# Probe 9 (0.1 0 0)
# Probe 10 (0.15 0 0)
# Probe 11 (0.2 0 0)
# Probe 12 (0.25 0 0)
# Probe 13 (0.3 0 0)
# Probe 14 (0.35 0 0)
# Probe 15 (0.4 0 0)
# Probe 16 (0.45 0 0)
# Probe 17 (0.5 0 0)
# Probe 18 (0.55 0 0)
# Probe 19 (0.6 0 0)
# Probe 20 (0.65 0 0)
# Probe 21 (0.7 0 0)
# Probe 22 (0.75 0 0)
# Probe 23 (0.8 0 0)
# Probe 24 (0.85 0 0)
# Probe 25 (0.9 0 0)
# Probe 26 (0.95 0 0)
# Probe 27 (1 0.05 0)
# Probe 28 (1 0.1 0)
# Probe 29 (1 0.15 0)
# Probe 30 (1 0.2 0)
# Probe 31 (1 0.25 0)
# Probe 32 (1 0.3 0)
# Probe 33 (1 0.35 0)
# Probe 34 (1 0.4 0)
# Probe 35 (1 0.45 0)
# Probe 36 (1 0.5 0)
# Probe 37 (1 0.55 0)
# Probe 38 (1 0.6 0)
# Probe 39 (1 0.65 0)
# Probe 40 (1 0.7 0)
# Probe 41 (1 0.75 0)
# Probe 42 (1 0.8 0)
# Probe 43 (1 0.85 0)
# Probe 44 (1 0.9 0)
# Probe 45 (1 0.95 0)
# Probe 46 (0.95 1 0)
# Probe 47 (0.9 1 0)
# Probe 48 (0.85 1 0)
# Probe 49 (0.8 1 0)
# Probe 50 (0.75 1 0)
# Probe 51 (0.7 1 0)
# Probe 52 (0.65 1 0)
# Probe 53 (0.6 1 0)
# Probe 54 (0.55 1 0)
# Probe 55 (0.5 1 0)
# Probe 56 (0.45 1 0)
# Probe 57 (0.4 1 0)
# Probe 58 (0.35 1 0)
# Probe 59 (0.3 1 0)
# Probe 60 (0.25 1 0)
# Probe 61 (0.2 1 0)
# Probe 62 (0.15 1 0)
# Probe 63 (0.1 1 0)
# Probe 64 (0.05 1 0)
# Probe 65 (0 0.95 0)
# Probe 66 (0 0.9 0)
# Probe 67 (0 0.85 0)
# Probe 68 (0 0.8 0)
# Probe 69 (0 0.75 0)
# Probe 70 (0 0.7 0)
# Probe 71 (0 0.65 0)
# Probe 72 (0 0.6 0)
# Probe 73 (0 0.55 0)
# Probe 74 (0 0.5 0)
# Probe 75 (0 0.45 0)
# Probe 76 (0 0.4 0)
# Probe 77 (0 0.35 0)
# Probe 78 (0 0.3 0)
# Probe 79 (0 0.25 0)
# Probe 80 (0 0.2 0)
# Probe 81 (0 0.15 0)
# Probe 82 (0 0.1 0)
# Probe 83 (0 0.05 0)
# Probe 84 (0.61952 0.5302 0)
# Probe 85 (0.61808 0.52049 0)
# Probe 86 (0.61569 0.51097 0)
# Probe 87 (0.61239 0.50173 0)
# Probe 88 (0.60819 0.49286 0)
# Probe 89 (0.60315 0.48444 0)
# Probe 90 (0.5973 0.47656 0)
# Probe 91 (0.59071 0.46929 0)
# Probe 92 (0.58344 0.4627 0)
# Probe 93 (0.57556 0.45685 0)
# Probe 94 (0.56714 0.45181 0)
# Probe 95 (0.55827 0.44761 0)
# Probe 96 (0.54903 0.44431 0)
# Probe 97 (0.53951 0.44192 0)
# Probe 98 (0.5298 0.44048 0)
# Probe 99 (0.5102 0.44048 0)
# Probe 100 (0.50049 0.44192 0)
# Probe 101 (0.49097 0.44431 0)
# Probe 102 (0.48173 0.44761 0)
# Probe 103 (0.47286 0.45181 0)
# Probe 104 (0.46444 0.45685 0)
# Probe 105 (0.45656 0.4627 0)
# Probe 106 (0.44929 0.46929 0)
# Probe 107 (0.4427 0.47656 0)
# Probe 108 (0.43685 0.48444 0)
# Probe 109 (0.43181 0.49286 0)
# Probe 110 (0.42761 0.50173 0)
# Probe 111 (0.42431 0.51097 0)
# Probe 112 (0.42192 0.52049 0)
# Probe 113 (0.42048 0.5302 0)
# Probe 114 (0.42048 0.5498 0)
# Probe 115 (0.42192 0.55951 0)
# Probe 116 (0.42431 0.56903 0)
# Probe 117 (0.42761 0.57827 0)
# Probe 118 (0.43181 0.58714 0)
# Probe 119 (0.43685 0.59556 0)
# Probe 120 (0.4427 0.60344 0)
# Probe 121 (0.44929 0.61071 0)
# Probe 122 (0.45656 0.6173 0)
# Probe 123 (0.46444 0.62315 0)
# Probe 124 (0.47286 0.62819 0)
# Probe 125 (0.48173 0.63239 0)
# Probe 126 (0.49097 0.63569 0)
# Probe 127 (0.50049 0.63808 0)
# Probe 128 (0.5102 0.63952 0)
# Probe 129 (0.5298 0.63952 0)
# Probe 130 (0.53951 0.63808 0)
# Probe 131 (0.54903 0.63569 0)
# Probe 132 (0.55827 0.63239 0)
# Probe 133 (0.56714 0.62819 0)
# Probe 134 (0.57556 0.62315 0)
# Probe 135 (0.58344 0.6173 0)
# Probe 136 (0.59071 0.61071 0)
# Probe 137 (0.5973 0.60344 0)
# Probe 138 (0.60315 0.59556 0)
# Probe 139 (0.60819 0.58714 0)
# Probe 140 (0.61239 0.57827 0)
# Probe 141 (0.61569 0.56903 0)
# Probe 142 (0.61808 0.55951 0)
# Probe 143 (0.61952 0.5498 0)
# Probe 144 (0.27382 0.04268 0)
# Probe 145 (0.7251 0.04144 0)
# Probe 146 (0.04313 0.32747 0)
# Probe 147 (0.03841 0.72485 0)
# Probe 148 (0.27741 0.95941 0)
# Probe 149 (0.96143 0.32823 0)
# Probe 150 (0.42899 0.04761 0)
# Probe 151 (0.57401 0.04242 0)
# Probe 152 (0.95728 0.72581 0)
# Probe 153 (0.73114 0.95925 0)
# Probe 154 (0.04189 0.4742 0)
# Probe 155 (0.95715 0.47789 0)
# Probe 156 (0.42417 0.95231 0)
# Probe 157 (0.57435 0.96304 0)
# Probe 158 (0.95566 0.17651 0)
# Probe 159 (0.0433 0.175 0)
# Probe 160 (0.96157 0.575 0)
# Probe 161 (0.82799 0.95866 0)
# Probe 162 (0.18198 0.95869 0)
# Probe 163 (0.9563 0.82305 0)
# Probe 164 (0.04097 0.57685 0)
# Probe 165 (0.03936 0.82361 0)
# Probe 166 (0.82433 0.04292 0)
# Probe 167 (0.17544 0.04146 0)
# Probe 168 (0.92268 0.95541 0)
# Probe 169 (0.04358 0.92524 0)
# Probe 170 (0.04494 0.07925 0)
# Probe 171 (0.9224 0.04308 0)
# Probe 172 (0.96029 0.52578 0)
# Probe 173 (0.92005 0.50149 0)
# Probe 174 (0.91792 0.45635 0)
# Probe 175 (0.8825 0.4794 0)
# Probe 176 (0.87949 0.44081 0)
# Probe 177 (0.8488 0.46148 0)
# Probe 178 (0.84835 0.49501 0)
# Probe 179 (0.84654 0.42589 0)
# Probe 180 (0.81772 0.44505 0)
# Probe 181 (0.62463 0.5138 0)
# Probe 182 (0.81541 0.41115 0)
# Probe 183 (0.78834 0.42924 0)
# Probe 184 (0.78615 0.3977 0)
# Probe 185 (0.76107 0.41295 0)
# Probe 186 (0.7585 0.38408 0)
# Probe 187 (0.60747 0.47544 0)
# Probe 188 (0.76248 0.43983 0)
# Probe 189 (0.73432 0.39816 0)
# Probe 190 (0.73145 0.37055 0)
# Probe 191 (0.75772 0.35538 0)
# Probe 192 (0.72921 0.3415 0)
# Probe 193 (0.70463 0.35815 0)
# Probe 194 (0.58509 0.45232 0)
# Probe 195 (0.70198 0.32961 0)
# Probe 196 (0.67828 0.34672 0)
# Probe 197 (0.67638 0.3135 0)
# Probe 198 (0.65257 0.33332 0)
# Probe 199 (0.55651 0.43796 0)
# Probe 200 (0.64978 0.30661 0)
# Probe 201 (0.62769 0.32256 0)
# Probe 202 (0.62424 0.29612 0)
# Probe 203 (0.60268 0.31142 0)
# Probe 204 (0.59911 0.28528 0)
# Probe 205 (0.57458 0.30419 0)
# Probe 206 (0.5254 0.43183 0)
# Probe 207 (0.57414 0.27382 0)
# Probe 208 (0.55066 0.29025 0)
# Probe 209 (0.72812 0.31193 0)
# Probe 210 (0.54894 0.26275 0)
# Probe 211 (0.52645 0.2786 0)
# Probe 212 (0.64053 0.27916 0)
# Probe 213 (0.52249 0.25316 0)
# Probe 214 (0.50116 0.26825 0)
# Probe 215 (0.49367 0.43487 0)
# Probe 216 (0.50481 0.29322 0)
# Probe 217 (0.47914 0.28247 0)
# Probe 218 (0.47455 0.25732 0)
# Probe 219 (0.45184 0.27285 0)
# Probe 220 (0.45797 0.29658 0)
# Probe 221 (0.42989 0.28899 0)
# Probe 222 (0.46428 0.44704 0)
# Probe 223 (0.42415 0.26106 0)
# Probe 224 (0.40079 0.2805 0)
# Probe 225 (0.40918 0.31049 0)
# Probe 226 (0.37844 0.30051 0)
# Probe 227 (0.38333 0.3301 0)
# Probe 228 (0.35566 0.31994 0)
# Probe 229 (0.36098 0.34828 0)
# Probe 230 (0.43304 0.47566 0)
# Probe 231 (0.33365 0.33898 0)
# Probe 232 (0.3397 0.36704 0)
# Probe 233 (0.32647 0.31083 0)
# Probe 234 (0.31165 0.35781 0)
# Probe 235 (0.32069 0.3895 0)
# Probe 236 (0.29024 0.37688 0)
# Probe 237 (0.29535 0.40561 0)
# Probe 238 (0.41803 0.50257 0)
# Probe 239 (0.26775 0.3952 0)
# Probe 240 (0.27405 0.42369 0)
# Probe 241 (0.26177 0.36583 0)
# Probe 242 (0.39503 0.25035 0)
# Probe 243 (0.29964 0.43313 0)
# Probe 244 (0.27932 0.45114 0)
# Probe 245 (0.30458 0.4591 0)
# Probe 246 (0.28509 0.47708 0)
# Probe 247 (0.41217 0.53588 0)
# Probe 248 (0.25913 0.46952 0)
# Probe 249 (0.26599 0.4957 0)
# Probe 250 (0.29406 0.50521 0)
# Probe 251 (0.27289 0.52143 0)
# Probe 252 (0.29644 0.53084 0)
# Probe 253 (0.27851 0.54624 0)
# Probe 254 (0.41623 0.56622 0)
# Probe 255 (0.30188 0.55336 0)
# Probe 256 (0.28469 0.56891 0)
# Probe 257 (0.30768 0.57667 0)
# Probe 258 (0.28732 0.59382 0)
# Probe 259 (0.3131 0.60042 0)
# Probe 260 (0.29611 0.61685 0)
# Probe 261 (0.31977 0.62432 0)
# Probe 262 (0.30159 0.64161 0)
# Probe 263 (0.32628 0.64906 0)
# Probe 264 (0.30751 0.66696 0)
# Probe 265 (0.33161 0.67316 0)
# Probe 266 (0.44722 0.6203 0)
# Probe 267 (0.31367 0.69287 0)
# Probe 268 (0.34268 0.69699 0)
# Probe 269 (0.28259 0.63394 0)
# Probe 270 (0.2587 0.56265 0)
# Probe 271 (0.42695 0.59557 0)
# Probe 272 (0.31984 0.72036 0)
# Probe 273 (0.348 0.72737 0)
# Probe 274 (0.29174 0.7118 0)
# Probe 275 (0.61827 0.49375 0)
# Probe 276 (0.4469 0.46011 0)
# Probe 277 (0.46432 0.63355 0)
# Probe 278 (0.32345 0.44264 0)
# Probe 279 (0.57201 0.24739 0)
# Probe 280 (0.67978 0.37193 0)
# Probe 281 (0.29888 0.74195 0)
# Probe 282 (0.26738 0.73103 0)
# Probe 283 (0.2375 0.38501 0)
# Probe 284 (0.23196 0.3534 0)
# Probe 285 (0.36962 0.70836 0)
# Probe 286 (0.37527 0.73504 0)
# Probe 287 (0.39493 0.71659 0)
# Probe 288 (0.40161 0.74301 0)
# Probe 289 (0.42129 0.71992 0)
# Probe 290 (0.49407 0.6449 0)
# Probe 291 (0.42726 0.7488 0)
# Probe 292 (0.38323 0.76282 0)
# Probe 293 (0.44456 0.73003 0)
# Probe 294 (0.45114 0.75469 0)
# Probe 295 (0.4688 0.73698 0)
# Probe 296 (0.4753 0.76133 0)
# Probe 297 (0.49321 0.74369 0)
# Probe 298 (0.53589 0.64783 0)
# Probe 299 (0.49974 0.76799 0)
# Probe 300 (0.51736 0.75007 0)
# Probe 301 (0.52441 0.77431 0)
# Probe 302 (0.54222 0.75637 0)
# Probe 303 (0.54949 0.78128 0)
# Probe 304 (0.56882 0.76207 0)
# Probe 305 (0.56668 0.63779 0)
# Probe 306 (0.57529 0.7886 0)
# Probe 307 (0.59586 0.76829 0)
# Probe 308 (0.23929 0.48661 0)
# Probe 309 (0.60298 0.79657 0)
# Probe 310 (0.62315 0.77549 0)
# Probe 311 (0.61591 0.74776 0)
# Probe 312 (0.64276 0.75456 0)
# Probe 313 (0.63511 0.72778 0)
# Probe 314 (0.66242 0.73342 0)
# Probe 315 (0.62224 0.57679 0)
# Probe 316 (0.59991 0.61267 0)
# Probe 317 (0.67074 0.76138 0)
# Probe 318 (0.69008 0.7397 0)
# Probe 319 (0.68159 0.71214 0)
# Probe 320 (0.70912 0.71799 0)
# Probe 321 (0.70001 0.69145 0)
# Probe 322 (0.72758 0.69671 0)
# Probe 323 (0.71705 0.66599 0)
# Probe 324 (0.73614 0.72449 0)
# Probe 325 (0.74613 0.67539 0)
# Probe 326 (0.73747 0.64819 0)
# Probe 327 (0.62808 0.5455 0)
# Probe 328 (0.58439 0.62683 0)
# Probe 329 (0.61296 0.59572 0)
# Probe 330 (0.76597 0.65466 0)
# Probe 331 (0.58324 0.33027 0)
# Probe 332 (0.41032 0.33945 0)
# Probe 333 (0.62951 0.35074 0)
# Probe 334 (0.36731 0.37489 0)
# Probe 335 (0.32801 0.46589 0)
# Probe 336 (0.50725 0.79377 0)
# Probe 337 (0.75625 0.62685 0)
# Probe 338 (0.73025 0.62101 0)
# Probe 339 (0.74684 0.60091 0)
# Probe 340 (0.34478 0.45223 0)
# Probe 341 (0.27642 0.76534 0)
# Probe 342 (0.24258 0.75516 0)
# Probe 343 (0.72046 0.59612 0)
# Probe 344 (0.7016 0.61676 0)
# Probe 345 (0.34881 0.65511 0)
# Probe 346 (0.73691 0.5766 0)
# Probe 347 (0.31955 0.53748 0)
# Probe 348 (0.56323 0.73385 0)
# Probe 349 (0.78532 0.63202 0)
# Probe 350 (0.67516 0.68784 0)
# Probe 351 (0.79588 0.6618 0)
# Probe 352 (0.20507 0.37534 0)
# Probe 353 (0.19912 0.34197 0)
# Probe 354 (0.33621 0.60718 0)
# Probe 355 (0.71266 0.57232 0)
# Probe 356 (0.3489 0.47227 0)
# Probe 357 (0.23482 0.71884 0)
# Probe 358 (0.22668 0.31909 0)
# Probe 359 (0.19243 0.30679 0)
# Probe 360 (0.22103 0.2831 0)
# Probe 361 (0.409 0.70157 0)
# Probe 362 (0.25032 0.78999 0)
# Probe 363 (0.28608 0.80007 0)
# Probe 364 (0.72801 0.55361 0)
# Probe 365 (0.7017 0.54979 0)
# Probe 366 (0.36378 0.46024 0)
# Probe 367 (0.63128 0.80517 0)
# Probe 368 (0.50892 0.72717 0)
# Probe 369 (0.20872 0.74413 0)
# Probe 370 (0.20101 0.70776 0)
# Probe 371 (0.41981 0.23003 0)
# Probe 372 (0.38821 0.21783 0)
# Probe 373 (0.69962 0.76815 0)
# Probe 374 (0.76304 0.57855 0)
# Probe 375 (0.80925 0.37798 0)
# Probe 376 (0.18538 0.27016 0)
# Probe 377 (0.21543 0.24549 0)
# Probe 378 (0.46395 0.71149 0)
# Probe 379 (0.81734 0.63586 0)
# Probe 380 (0.41671 0.1961 0)
# Probe 381 (0.38277 0.18297 0)
# Probe 382 (0.71917 0.53214 0)
# Probe 383 (0.69766 0.5276 0)
# Probe 384 (0.69035 0.56899 0)
# Probe 385 (0.73899 0.53777 0)
# Probe 386 (0.58248 0.81594 0)
# Probe 387 (0.35456 0.20611 0)
# Probe 388 (0.45712 0.77999 0)
# Probe 389 (0.36994 0.47864 0)
# Probe 390 (0.8283 0.66894 0)
# Probe 391 (0.71178 0.51162 0)
# Probe 392 (0.69251 0.50887 0)
# Probe 393 (0.70481 0.49236 0)
# Probe 394 (0.6873 0.49105 0)
# Probe 395 (0.69814 0.47375 0)
# Probe 396 (0.67752 0.47285 0)
# Probe 397 (0.17244 0.36534 0)
# Probe 398 (0.18002 0.40082 0)
# Probe 399 (0.38189 0.46547 0)
# Probe 400 (0.37839 0.44905 0)
# Probe 401 (0.34833 0.1697 0)
# Probe 402 (0.17812 0.2314 0)
# Probe 403 (0.20921 0.20567 0)
# Probe 404 (0.14499 0.38968 0)
# Probe 405 (0.15078 0.42397 0)
# Probe 406 (0.67832 0.52441 0)
# Probe 407 (0.25886 0.82605 0)
# Probe 408 (0.22203 0.81563 0)
# Probe 409 (0.29523 0.8359 0)
# Probe 410 (0.1703 0.19069 0)
# Probe 411 (0.69094 0.45513 0)
# Probe 412 (0.67146 0.45202 0)
# Probe 413 (0.6592 0.46588 0)
# Probe 414 (0.65335 0.44953 0)
# Probe 415 (0.39452 0.45559 0)
# Probe 416 (0.39228 0.43885 0)
# Probe 417 (0.17311 0.73318 0)
# Probe 418 (0.16572 0.6965 0)
# Probe 419 (0.85165 0.64304 0)
# Probe 420 (0.83965 0.60842 0)
# Probe 421 (0.19394 0.67118 0)
# Probe 422 (0.15881 0.65919 0)
# Probe 423 (0.18728 0.63478 0)
# Probe 424 (0.40767 0.44523 0)
# Probe 425 (0.40588 0.42905 0)
# Probe 426 (0.15235 0.62242 0)
# Probe 427 (0.18016 0.59879 0)
# Probe 428 (0.42075 0.43497 0)
# Probe 429 (0.41897 0.4189 0)
# Probe 430 (0.43375 0.4248 0)
# Probe 431 (0.43172 0.40842 0)
# Probe 432 (0.44708 0.41442 0)
# Probe 433 (0.4448 0.3982 0)
# Probe 434 (0.46042 0.40424 0)
# Probe 435 (0.45803 0.38754 0)
# Probe 436 (0.47277 0.39409 0)
# Probe 437 (0.47161 0.37688 0)
# Probe 438 (0.48784 0.38617 0)
# Probe 439 (0.48572 0.36552 0)
# Probe 440 (0.50256 0.37296 0)
# Probe 441 (0.50496 0.39057 0)
# Probe 442 (0.51971 0.37992 0)
# Probe 443 (0.51739 0.36145 0)
# Probe 444 (0.53429 0.3693 0)
# Probe 445 (0.53614 0.38712 0)
# Probe 446 (0.55021 0.3772 0)
# Probe 447 (0.55163 0.39439 0)
# Probe 448 (0.56556 0.38477 0)
# Probe 449 (0.56675 0.4013 0)
# Probe 450 (0.58061 0.39222 0)
# Probe 451 (0.58175 0.40837 0)
# Probe 452 (0.59714 0.39928 0)
# Probe 453 (0.5977 0.41796 0)
# Probe 454 (0.61134 0.40698 0)
# Probe 455 (0.35393 0.49094 0)
# Probe 456 (0.37107 0.49672 0)
# Probe 457 (0.20252 0.16404 0)
# Probe 458 (0.14942 0.25683 0)
# Probe 459 (0.61361 0.42225 0)
# Probe 460 (0.62673 0.41342 0)
# Probe 461 (0.1457 0.58609 0)
# Probe 462 (0.17339 0.56255 0)
# Probe 463 (0.13854 0.54986 0)
# Probe 464 (0.41108 0.16002 0)
# Probe 465 (0.4456 0.17423 0)
# Probe 466 (0.66224 0.43274 0)
# Probe 467 (0.12302 0.65008 0)
# Probe 468 (0.25077 0.26036 0)
# Probe 469 (0.41569 0.40396 0)
# Probe 470 (0.87384 0.39974 0)
# Probe 471 (0.72545 0.49569 0)
# Probe 472 (0.53303 0.35006 0)
# Probe 473 (0.37629 0.43185 0)
# Probe 474 (0.35826 0.50811 0)
# Probe 475 (0.37414 0.51325 0)
# Probe 476 (0.36216 0.52443 0)
# Probe 477 (0.39728 0.47051 0)
# Probe 478 (0.37986 0.52912 0)
# Probe 479 (0.36613 0.54011 0)
# Probe 480 (0.38113 0.54492 0)
# Probe 481 (0.36937 0.55558 0)
# Probe 482 (0.31988 0.19247 0)
# Probe 483 (0.31291 0.15639 0)
# Probe 484 (0.34378 0.13128 0)
# Probe 485 (0.16359 0.14999 0)
# Probe 486 (0.23095 0.85413 0)
# Probe 487 (0.19178 0.8427 0)
# Probe 488 (0.80541 0.69433 0)
# Probe 489 (0.83939 0.70245 0)
# Probe 490 (0.81395 0.72937 0)
# Probe 491 (0.85001 0.73716 0)
# Probe 492 (0.82369 0.76593 0)
# Probe 493 (0.16639 0.5267 0)
# Probe 494 (0.4681 0.35805 0)
# Probe 495 (0.60695 0.72111 0)
# Probe 496 (0.64242 0.46194 0)
# Probe 497 (0.64683 0.47677 0)
# Probe 498 (0.13679 0.35255 0)
# Probe 499 (0.62566 0.70398 0)
# Probe 500 (0.60409 0.69743 0)
# Probe 501 (0.61773 0.68339 0)
# Probe 502 (0.59871 0.67789 0)
# Probe 503 (0.60982 0.66308 0)
# Probe 504 (0.58528 0.69071 0)
# Probe 505 (0.58025 0.67389 0)
# Probe 506 (0.56792 0.68568 0)
# Probe 507 (0.56448 0.66947 0)
# Probe 508 (0.55044 0.67841 0)
# Probe 509 (0.57971 0.37495 0)
# Probe 510 (0.38411 0.56011 0)
# Probe 511 (0.3727 0.57085 0)
# Probe 512 (0.38741 0.57488 0)
# Probe 513 (0.37611 0.58603 0)
# Probe 514 (0.39304 0.58971 0)
# Probe 515 (0.37999 0.6013 0)
# Probe 516 (0.39789 0.60609 0)
# Probe 517 (0.38358 0.61727 0)
# Probe 518 (0.39968 0.62267 0)
# Probe 519 (0.35952 0.5656 0)
# Probe 520 (0.86029 0.7725 0)
# Probe 521 (0.83482 0.80352 0)
# Probe 522 (0.79601 0.79441 0)
# Probe 523 (0.80706 0.83263 0)
# Probe 524 (0.84414 0.84423 0)
# Probe 525 (0.76923 0.82381 0)
# Probe 526 (0.7793 0.8617 0)
# Probe 527 (0.73984 0.85124 0)
# Probe 528 (0.12937 0.51239 0)
# Probe 529 (0.44038 0.13672 0)
# Probe 530 (0.47661 0.15134 0)
# Probe 531 (0.47077 0.11247 0)
# Probe 532 (0.50652 0.12887 0)
# Probe 533 (0.51227 0.16622 0)
# Probe 534 (0.54168 0.14462 0)
# Probe 535 (0.4418 0.38094 0)
# Probe 536 (0.63275 0.66994 0)
# Probe 537 (0.62489 0.65075 0)
# Probe 538 (0.64305 0.65388 0)
# Probe 539 (0.635 0.63528 0)
# Probe 540 (0.65493 0.63988 0)
# Probe 541 (0.64828 0.62309 0)
# Probe 542 (0.23159 0.45951 0)
# Probe 543 (0.48301 0.34561 0)
# Probe 544 (0.38568 0.50346 0)
# Probe 545 (0.11634 0.41303 0)
# Probe 546 (0.38761 0.6342 0)
# Probe 547 (0.40297 0.63853 0)
# Probe 548 (0.39169 0.65289 0)
# Probe 549 (0.41501 0.62781 0)
# Probe 550 (0.41851 0.64277 0)
# Probe 551 (0.3285 0.22832 0)
# Probe 552 (0.32165 0.80894 0)
# Probe 553 (0.33275 0.84526 0)
# Probe 554 (0.34007 0.50536 0)
# Probe 555 (0.62546 0.39593 0)
# Probe 556 (0.64173 0.40416 0)
# Probe 557 (0.53804 0.40342 0)
# Probe 558 (0.87591 0.61549 0)
# Probe 559 (0.8879 0.65005 0)
# Probe 560 (0.86275 0.58114 0)
# Probe 561 (0.58264 0.42434 0)
# Probe 562 (0.21339 0.61084 0)
# Probe 563 (0.47357 0.41053 0)
# Probe 564 (0.13622 0.72207 0)
# Probe 565 (0.14046 0.75832 0)
# Probe 566 (0.71151 0.45795 0)
# Probe 567 (0.82754 0.57458 0)
# Probe 568 (0.20008 0.54044 0)
# Probe 569 (0.63217 0.61849 0)
# Probe 570 (0.64285 0.607 0)
# Probe 571 (0.65945 0.60998 0)
# Probe 572 (0.65329 0.59397 0)
# Probe 573 (0.60807 0.64615 0)
# Probe 574 (0.66969 0.5964 0)
# Probe 575 (0.55492 0.69712 0)
# Probe 576 (0.53872 0.69201 0)
# Probe 577 (0.51468 0.64825 0)
# Probe 578 (0.53515 0.67528 0)
# Probe 579 (0.5232 0.6861 0)
# Probe 580 (0.30444 0.87293 0)
# Probe 581 (0.34064 0.88376 0)
# Probe 582 (0.37024 0.85347 0)
# Probe 583 (0.7038 0.43788 0)
# Probe 584 (0.63601 0.44669 0)
# Probe 585 (0.34095 0.42952 0)
# Probe 586 (0.54671 0.18132 0)
# Probe 587 (0.57757 0.16034 0)
# Probe 588 (0.42205 0.45095 0)
# Probe 589 (0.5052 0.08386 0)
# Probe 590 (0.20936 0.48014 0)
# Probe 591 (0.62461 0.46026 0)
# Probe 592 (0.2829 0.18135 0)
# Probe 593 (0.27557 0.14485 0)
# Probe 594 (0.57373 0.11774 0)
# Probe 595 (0.60894 0.13811 0)
# Probe 596 (0.61348 0.1777 0)
# Probe 597 (0.64292 0.15438 0)
# Probe 598 (0.64073 0.1163 0)
# Probe 599 (0.67498 0.13252 0)
# Probe 600 (0.67778 0.17171 0)
# Probe 601 (0.70959 0.15002 0)
# Probe 602 (0.71201 0.18907 0)
# Probe 603 (0.74468 0.16766 0)
# Probe 604 (0.74711 0.20757 0)
# Probe 605 (0.78006 0.18549 0)
# Probe 606 (0.78211 0.22567 0)
# Probe 607 (0.81592 0.20346 0)
# Probe 608 (0.81835 0.24478 0)
# Probe 609 (0.81474 0.16367 0)
# Probe 610 (0.8527 0.22178 0)
# Probe 611 (0.85428 0.26304 0)
# Probe 612 (0.82066 0.28543 0)
# Probe 613 (0.85566 0.30361 0)
# Probe 614 (0.71507 0.22849 0)
# Probe 615 (0.88999 0.2405 0)
# Probe 616 (0.74405 0.12793 0)
# Probe 617 (0.66316 0.58091 0)
# Probe 618 (0.54211 0.70957 0)
# Probe 619 (0.64749 0.57863 0)
# Probe 620 (0.65657 0.56624 0)
# Probe 621 (0.38135 0.8911 0)
# Probe 622 (0.40753 0.86237 0)
# Probe 623 (0.39707 0.82723 0)
# Probe 624 (0.43234 0.83558 0)
# Probe 625 (0.44415 0.8684 0)
# Probe 626 (0.46686 0.84294 0)
# Probe 627 (0.47966 0.87502 0)
# Probe 628 (0.50242 0.84932 0)
# Probe 629 (0.51523 0.88323 0)
# Probe 630 (0.48987 0.91452 0)
# Probe 631 (0.39472 0.5505 0)
# Probe 632 (0.40565 0.122 0)
# Probe 633 (0.19847 0.12479 0)
# Probe 634 (0.12863 0.17694 0)
# Probe 635 (0.12358 0.13042 0)
# Probe 636 (0.67871 0.79099 0)
# Probe 637 (0.64296 0.56443 0)
# Probe 638 (0.65078 0.55253 0)
# Probe 639 (0.66483 0.55406 0)
# Probe 640 (0.76032 0.78711 0)
# Probe 641 (0.5748 0.65737 0)
# Probe 642 (0.87495 0.70841 0)
# Probe 643 (0.52063 0.67115 0)
# Probe 644 (0.50878 0.68069 0)
# Probe 645 (0.51474 0.34184 0)
# Probe 646 (0.53078 0.32886 0)
# Probe 647 (0.64242 0.38305 0)
# Probe 648 (0.36945 0.62856 0)
# Probe 649 (0.45012 0.43125 0)
# Probe 650 (0.35312 0.92268 0)
# Probe 651 (0.20171 0.88293 0)
# Probe 652 (0.16032 0.87168 0)
# Probe 653 (0.53877 0.85739 0)
# Probe 654 (0.55151 0.89053 0)
# Probe 655 (0.5059 0.66521 0)
# Probe 656 (0.49398 0.67504 0)
# Probe 657 (0.49688 0.69098 0)
# Probe 658 (0.48185 0.6851 0)
# Probe 659 (0.47933 0.6693 0)
# Probe 660 (0.4671 0.6789 0)
# Probe 661 (0.46516 0.6635 0)
# Probe 662 (0.4525 0.67294 0)
# Probe 663 (0.44931 0.65453 0)
# Probe 664 (0.43679 0.66538 0)
# Probe 665 (0.88614 0.19887 0)
# Probe 666 (0.65805 0.54062 0)
# Probe 667 (0.43933 0.68433 0)
# Probe 668 (0.67217 0.09291 0)
# Probe 669 (0.14987 0.83116 0)
# Probe 670 (0.11817 0.85924 0)
# Probe 671 (0.12624 0.905 0)
# Probe 672 (0.10216 0.53648 0)
# Probe 673 (0.40499 0.59623 0)
# Probe 674 (0.70895 0.79778 0)
# Probe 675 (0.68957 0.82211 0)
# Probe 676 (0.75033 0.88962 0)
# Probe 677 (0.72038 0.87898 0)
# Probe 678 (0.43089 0.63282 0)
# Probe 679 (0.42624 0.61762 0)
# Probe 680 (0.24307 0.88931 0)
# Probe 681 (0.35042 0.53611 0)
# Probe 682 (0.15821 0.49183 0)
# Probe 683 (0.12204 0.47538 0)
# Probe 684 (0.63366 0.08098 0)
# Probe 685 (0.111 0.8189 0)
# Probe 686 (0.11002 0.74415 0)
# Probe 687 (0.20446 0.44743 0)
# Probe 688 (0.47734 0.65414 0)
# Probe 689 (0.51615 0.20073 0)
# Probe 690 (0.46452 0.33795 0)
# Probe 691 (0.44762 0.35154 0)
# Probe 692 (0.48228 0.32485 0)
# Probe 693 (0.91295 0.62265 0)
# Probe 694 (0.9221 0.66281 0)
# Probe 695 (0.82353 0.32252 0)
# Probe 696 (0.78804 0.30563 0)
# Probe 697 (0.85679 0.34268 0)
# Probe 698 (0.89106 0.32398 0)
# Probe 699 (0.62124 0.44421 0)
# Probe 700 (0.61063 0.45543 0)
# Probe 701 (0.56085 0.65516 0)
# Probe 702 (0.3648 0.59786 0)
# Probe 703 (0.60517 0.44212 0)
# Probe 704 (0.57382 0.8656 0)
# Probe 705 (0.58833 0.89815 0)
# Probe 706 (0.61146 0.865 0)
# Probe 707 (0.6262 0.90542 0)
# Probe 708 (0.65244 0.87682 0)
# Probe 709 (0.66691 0.91482 0)
# Probe 710 (0.7257 0.44128 0)
# Probe 711 (0.73256 0.46213 0)
# Probe 712 (0.39715 0.56348 0)
# Probe 713 (0.1001 0.71113 0)
# Probe 714 (0.78533 0.90372 0)
# Probe 715 (0.85199 0.54849 0)
# Probe 716 (0.81523 0.54188 0)
# Probe 717 (0.88402 0.55679 0)
# Probe 718 (0.54875 0.33852 0)
# Probe 719 (0.40002 0.57523 0)
# Probe 720 (0.41201 0.61379 0)
# Probe 721 (0.64527 0.53985 0)
# Probe 722 (0.652 0.52767 0)
# Probe 723 (0.63842 0.52856 0)
# Probe 724 (0.64592 0.51579 0)
# Probe 725 (0.65932 0.65462 0)
# Probe 726 (0.67593 0.64699 0)
# Probe 727 (0.41483 0.58352 0)
# Probe 728 (0.42403 0.67587 0)
# Probe 729 (0.4253 0.7992 0)
# Probe 730 (0.48392 0.70179 0)
# Probe 731 (0.46232 0.64605 0)
# Probe 732 (0.45103 0.64256 0)
# Probe 733 (0.43318 0.64901 0)
# Probe 734 (0.68574 0.53995 0)
# Probe 735 (0.66295 0.51603 0)
# Probe 736 (0.65399 0.50364 0)
# Probe 737 (0.63968 0.50234 0)
# Probe 738 (0.44398 0.33266 0)
# Probe 739 (0.2285 0.43216 0)
# Probe 740 (0.69825 0.5895 0)
# Probe 741 (0.67801 0.61305 0)
# Probe 742 (0.62839 0.60541 0)
# Probe 743 (0.61945 0.61565 0)
# Probe 744 (0.61774 0.63585 0)
# Probe 745 (0.60465 0.6339 0)
# Probe 746 (0.59576 0.64192 0)
# Probe 747 (0.59109 0.66275 0)
# Probe 748 (0.43659 0.44223 0)
# Probe 749 (0.62171 0.37552 0)
# Probe 750 (0.41097 0.46278 0)
# Probe 751 (0.41004 0.47803 0)
# Probe 752 (0.39918 0.48563 0)
# Probe 753 (0.7822 0.71673 0)
# Probe 754 (0.55188 0.66273 0)
# Probe 755 (0.4488 0.44401 0)
# Probe 756 (0.64376 0.42136 0)
# Probe 757 (0.65958 0.41209 0)
# Probe 758 (0.67807 0.41823 0)
# Probe 759 (0.69022 0.66751 0)
# Probe 760 (0.69921 0.6437 0)
# Probe 761 (0.49037 0.66109 0)
# Probe 762 (0.63207 0.47428 0)
# Probe 763 (0.66566 0.503 0)
# Probe 764 (0.58979 0.74277 0)
# Probe 765 (0.57422 0.71636 0)
# Probe 766 (0.95593 0.42942 0)
# Probe 767 (0.96075 0.37743 0)
# Probe 768 (0.38729 0.35739 0)
# Probe 769 (0.39119 0.38171 0)
# Probe 770 (0.40936 0.36514 0)
# Probe 771 (0.37261 0.39773 0)
# Probe 772 (0.34946 0.39246 0)
# Probe 773 (0.40535 0.55358 0)
# Probe 774 (0.52223 0.39676 0)
# Probe 775 (0.50932 0.40663 0)
# Probe 776 (0.49475 0.40322 0)
# Probe 777 (0.49971 0.4149 0)
# Probe 778 (0.51134 0.4209 0)
# Probe 779 (0.60559 0.33778 0)
# Probe 780 (0.58538 0.35582 0)
# Probe 781 (0.43973 0.70745 0)
# Probe 782 (0.52525 0.41258 0)
# Probe 783 (0.54029 0.41715 0)
# Probe 784 (0.55253 0.40967 0)
# Probe 785 (0.56652 0.41839 0)
# Probe 786 (0.57206 0.43176 0)
# Probe 787 (0.58234 0.43814 0)
# Probe 788 (0.55109 0.42476 0)
# Probe 789 (0.65196 0.70524 0)
# Probe 790 (0.46226 0.41992 0)
# Probe 791 (0.47499 0.42383 0)
# Probe 792 (0.38938 0.51709 0)
# Probe 793 (0.39927 0.50874 0)
# Probe 794 (0.40212 0.52071 0)
# Probe 795 (0.39276 0.53779 0)
# Probe 796 (0.39005 0.69273 0)
# Probe 797 (0.36827 0.68354 0)
# Probe 798 (0.38485 0.48962 0)
# Probe 799 (0.34541 0.63183 0)
# Probe 800 (0.63757 0.59132 0)
# Probe 801 (0.66083 0.48188 0)
# Probe 802 (0.65362 0.36038 0)
# Probe 803 (0.63671 0.48737 0)
# Probe 804 (0.70392 0.3879 0)
# Probe 805 (0.59403 0.43308 0)
# Probe 806 (0.3105 0.48323 0)
# Probe 807 (0.32022 0.50374 0)
# Probe 808 (0.41294 0.49055 0)
# Probe 809 (0.53344 0.73225 0)
# Probe 810 (0.42441 0.46252 0)
# Probe 811 (0.20696 0.5763 0)
# Probe 812 (0.81916 0.47838 0)
# Probe 813 (0.78546 0.46166 0)
# Probe 814 (0.79179 0.49368 0)
# Probe 815 (0.76401 0.4847 0)
# Probe 816 (0.7666 0.50972 0)
# Probe 817 (0.48288 0.18834 0)
# Probe 818 (0.59831 0.45277 0)
# Probe 819 (0.63904 0.94556 0)
# Probe 820 (0.32279 0.56152 0)
# Probe 821 (0.32864 0.58447 0)
# Probe 822 (0.45343 0.21092 0)
# Probe 823 (0.5489 0.21501 0)
# Probe 824 (0.89077 0.36366 0)
# Probe 825 (0.7855 0.26638 0)
# Probe 826 (0.74678 0.25245 0)
# Probe 827 (0.7103 0.26695 0)
# Probe 828 (0.68441 0.24812 0)
# Probe 829 (0.68562 0.28252 0)
# Probe 830 (0.53134 0.66034 0)
# Probe 831 (0.6716 0.04677 0)
# Probe 832 (0.52598 0.82276 0)
# Probe 833 (0.4656 0.43346 0)
# Probe 834 (0.47301 0.95783 0)
# Probe 835 (0.52261 0.95593 0)
# Probe 836 (0.22531 0.64495 0)
# Probe 837 (0.22828 0.68193 0)
# Probe 838 (0.36143 0.81337 0)
# Probe 839 (0.34167 0.78032 0)
# Probe 840 (0.25047 0.66296 0)
# Probe 841 (0.26118 0.69181 0)
# Probe 842 (0.24092 0.58604 0)
# Probe 843 (0.24589 0.61555 0)
# Probe 844 (0.60119 0.46509 0)
# Probe 845 (0.53582 0.43342 0)
# Probe 846 (0.4838 0.43839 0)
# Probe 847 (0.50462 0.43269 0)
# Probe 848 (0.41284 0.51267 0)
# Probe 849 (0.68146 0.21059 0)
# Probe 850 (0.65282 0.2304 0)
# Probe 851 (0.64807 0.19372 0)
# Probe 852 (0.61996 0.21428 0)
# Probe 853 (0.58202 0.20002 0)
# Probe 854 (0.6244 0.25144 0)
# Probe 855 (0.04241 0.52345 0)
# Probe 856 (0.30856 0.77419 0)
# Probe 857 (0.7941 0.56838 0)
# Probe 858 (0.80654 0.60413 0)
# Probe 859 (0.78325 0.53837 0)
# Probe 860 (0.47366 0.44203 0)
# Probe 861 (0.43998 0.46758 0)
# Probe 862 (0.435 0.45749 0)
# Probe 863 (0.42712 0.48416 0)
# Probe 864 (0.43214 0.6047 0)
# Probe 865 (0.71341 0.41667 0)
# Probe 866 (0.43905 0.61334 0)
# Probe 867 (0.62165 0.50364 0)
# Probe 868 (0.61327 0.48429 0)
# Probe 869 (0.45566 0.62683 0)
# Probe 870 (0.47294 0.63844 0)
# Probe 871 (0.55712 0.64372 0)
# Probe 872 (0.48359 0.64223 0)
# Probe 873 (0.59244 0.61998 0)
# Probe 874 (0.60657 0.60431 0)
# Probe 875 (0.54633 0.64513 0)
# Probe 876 (0.54946 0.31593 0)
# Probe 877 (0.62811 0.53484 0)
# Probe 878 (0.62697 0.55591 0)
# Probe 879 (0.31981 0.41856 0)
# Probe 880 (0.44542 0.63136 0)
# Probe 881 (0.52496 0.64904 0)
# Probe 882 (0.50451 0.64701 0)
# Probe 883 (0.08372 0.8902 0)
# Probe 884 (0.09383 0.93576 0)
# Probe 885 (0.61793 0.58634 0)
# Probe 886 (0.62484 0.56645 0)
# Probe 887 (0.92337 0.21439 0)
# Probe 888 (0.92644 0.26087 0)
# Probe 889 (0.48903 0.21747 0)
# Probe 890 (0.78134 0.95297 0)
# Probe 891 (0.23127 0.96026 0)
# Probe 892 (0.78339 0.75408 0)
# Probe 893 (0.95776 0.77435 0)
# Probe 894 (0.92116 0.75338 0)
# Probe 895 (0.91959 0.79675 0)
# Probe 896 (0.91501 0.84337 0)
# Probe 897 (0.9509 0.87858 0)
# Probe 898 (0.90893 0.88916 0)
# Probe 899 (0.57572 0.63286 0)
# Probe 900 (0.2298 0.55311 0)
# Probe 901 (0.22404 0.52567 0)
# Probe 902 (0.61891 0.47424 0)
# Probe 903 (0.57566 0.64392 0)
# Probe 904 (0.03657 0.77484 0)
# Probe 905 (0.79203 0.34403 0)
# Probe 906 (0.32568 0.95934 0)
# Probe 907 (0.77499 0.04186 0)
# Probe 908 (0.79926 0.08052 0)
# Probe 909 (0.84872 0.08382 0)
# Probe 910 (0.22641 0.04249 0)
# Probe 911 (0.24964 0.08004 0)
# Probe 912 (0.29494 0.08027 0)
# Probe 913 (0.32185 0.04329 0)
# Probe 914 (0.37426 0.04243 0)
# Probe 915 (0.34552 0.08494 0)
# Probe 916 (0.63902 0.83992 0)
# Probe 917 (0.30649 0.91626 0)
# Probe 918 (0.52832 0.30429 0)
# Probe 919 (0.87423 0.04277 0)
# Probe 920 (0.89883 0.08655 0)
# Probe 921 (0.86932 0.12188 0)
# Probe 922 (0.92005 0.13119 0)
# Probe 923 (0.95248 0.08251 0)
# Probe 924 (0.39467 0.40389 0)
# Probe 925 (0.95565 0.627 0)
# Probe 926 (0.653 0.68141 0)
# Probe 927 (0.04164 0.42407 0)
# Probe 928 (0.08746 0.44557 0)
# Probe 929 (0.04164 0.3742 0)
# Probe 930 (0.08842 0.35007 0)
# Probe 931 (0.08419 0.30376 0)
# Probe 932 (0.0445 0.27925 0)
# Probe 933 (0.08486 0.25958 0)
# Probe 934 (0.04428 0.22965 0)
# Probe 935 (0.093 0.21408 0)
# Probe 936 (0.08367 0.49515 0)
# Probe 937 (0.75523 0.29113 0)
# Probe 938 (0.041 0.62507 0)
# Probe 939 (0.07784 0.59971 0)
# Probe 940 (0.03716 0.6748 0)
# Probe 941 (0.46399 0.07343 0)
# Probe 942 (0.52736 0.04091 0)
# Probe 943 (0.5515 0.07977 0)
# Probe 944 (0.74716 0.08389 0)
# Probe 945 (0.42301 0.9026 0)
# Probe 946 (0.81876 0.51009 0)
# Probe 947 (0.8729 0.95837 0)
# Probe 948 (0.85097 0.92853 0)
# Probe 949 (0.63381 0.57497 0)
# Probe 950 (0.67585 0.39644 0)
# Probe 951 (0.25528 0.29658 0)
# Probe 952 (0.28246 0.27422 0)
# Probe 953 (0.27623 0.24447 0)
# Probe 954 (0.28862 0.3107 0)
# Probe 955 (0.25814 0.33229 0)
# Probe 956 (0.25293 0.21861 0)
# Probe 957 (0.39143 0.79289 0)
# Probe 958 (0.12558 0.04266 0)
# Probe 959 (0.14834 0.08243 0)
# Probe 960 (0.09875 0.08379 0)
# Probe 961 (0.0726 0.12612 0)
# Probe 962 (0.50637 0.3187 0)
# Probe 963 (0.24293 0.17519 0)
# Probe 964 (0.36216 0.23973 0)
# Probe 965 (0.33865 0.26148 0)
# Probe 966 (0.42118 0.65906 0)
# Probe 967 (0.4065 0.66607 0)
# Probe 968 (0.60508 0.36087 0)
# Probe 969 (0.5995 0.38063 0)
# Probe 970 (0.68497 0.95621 0)