# Probe 0 (0 0 0)
# Probe 1 (1 0 0)
# Probe 2 (1 1 0)
# Probe 3 (0 1 0)
# Probe 4 (0.36 0.47 0)
# Probe 5 (0.26 0.37 0)
# Probe 6 (0.16 0.47 0)
# Probe 7 (0.26 0.57 0)
# Probe 8 (0.05 0 0)
# Probe 9 (0.1 0 0)
# Probe 10 (0.15 0 0)
# Probe 11 (0.2 0 0)
# Probe 12 (0.25 0 0)
# Probe 13 (0.3 0 0)
# Probe 14 (0.35 0 0)
# Probe 15 (0.4 0 0)
# Probe 16 (0.45 0 0)
# Probe 17 (0.5 0 0)
# Probe 18 (0.55 0 0)
# Probe 19 (0.6 0 0)
# Probe 20 (0.65 0 0)
# Probe 21 (0.7 0 0)
# Probe 22 (0.75 0 0)
# Probe 23 (0.8 0 0)
# Probe 24 (0.85 0 0)
# Probe 25 (0.9 0 0)
# Probe 26 (0.95 0 0)
# Probe 27 (1 0.05 0)
# Probe 28 (1 0.1 0)
# Probe 29 (1 0.15 0)
# Probe 30 (1 0.2 0)
# Probe 31 (1 0.25 0)
# Probe 32 (1 0.3 0)
# Probe 33 (1 0.35 0)
# Probe 34 (1 0.4 0)
# Probe 35 (1 0.45 0)
# Probe 36 (1 0.5 0)
# Probe 37 (1 0.55 0)
# Probe 38 (1 0.6 0)
# Probe 39 (1 0.65 0)
# Probe 40 (1 0.7 0)
# Probe 41 (1 0.75 0)
# Probe 42 (1 0.8 0)
# Probe 43 (1 0.85 0)
# Probe 44 (1 0.9 0)
# Probe 45 (1 0.95 0)
# Probe 46 (0.95 1 0)
# Probe 47 (0.9 1 0)
# Probe 48 (0.85 1 0)
# Probe 49 (0.8 1 0)
# Probe 50 (0.75 1 0)
# Probe 51 (0.7 1 0)
# Probe 52 (0.65 1 0)
# Probe 53 (0.6 1 0)
# Probe 54 (0.55 1 0)
# Probe 55 (0.5 1 0)
# Probe 56 (0.45 1 0)
# Probe 57 (0.4 1 0)
# Probe 58 (0.35 1 0)
# Probe 59 (0.3 1 0)
# Probe 60 (0.25 1 0)
# Probe 61 (0.2 1 0)
# Probe 62 (0.15 1 0)
# Probe 63 (0.1 1 0)
# Probe 64 (0.05 1 0)
# Probe 65 (0 0.95 0)
# Probe 66 (0 0.9 0)
# Probe 67 (0 0.85 0)
# Probe 68 (0 0.8 0)
# Probe 69 (0 0.75 0)
# Probe 70 (0 0.7 0)
# Probe 71 (0 0.65 0)
# Probe 72 (0 0.6 0)
# Probe 73 (0 0.55 0)
# Probe 74 (0 0.5 0)
# Probe 75 (0 0.45 0)
# Probe 76 (0 0.4 0)
# Probe 77 (0 0.35 0)
# Probe 78 (0 0.3 0)
# Probe 79 (0 0.25 0)
# Probe 80 (0 0.2 0)
# Probe 81 (0 0.15 0)
# Probe 82 (0 0.1 0)
# Probe 83 (0 0.05 0)
# Probe 84 (0.35952 0.4602 0)
# Probe 85 (0.35808 0.45049 0)
# Probe 86 (0.35569 0.44097 0)
# Probe 87 (0.35239 0.43173 0)
# Probe 88 (0.34819 0.42286 0)
# Probe 89 (0.34315 0.41444 0)
# Probe 90 (0.3373 0.40656 0)
# Probe 91 (0.33071 0.39929 0)
# Probe 92 (0.32344 0.3927 0)
# Probe 93 (0.31556 0.38685 0)
# Probe 94 (0.30714 0.38181 0)
# Probe 95 (0.29827 0.37761 0)
# Probe 96 (0.28903 0.37431 0)
# Probe 97 (0.27951 0.37192 0)
# Probe 98 (0.2698 0.37048 0)
# Probe 99 (0.2502 0.37048 0)
# Probe 100 (0.24049 0.37192 0)
# Probe 101 (0.23097 0.37431 0)
# Probe 102 (0.22173 0.37761 0)
# Probe 103 (0.21286 0.38181 0)
# Probe 104 (0.20444 0.38685 0)
# Probe 105 (0.19656 0.3927 0)
# Probe 106 (0.18929 0.39929 0)
# Probe 107 (0.1827 0.40656 0)
# Probe 108 (0.17685 0.41444 0)
# Probe 109 (0.17181 0.42286 0)
# Probe 110 (0.16761 0.43173 0)
# Probe 111 (0.16431 0.44097 0)
# Probe 112 (0.16192 0.45049 0)
# Probe 113 (0.16048 0.4602 0)
# Probe 114 (0.16048 0.4798 0)
# Probe 115 (0.16192 0.48951 0)
# Probe 116 (0.16431 0.49903 0)
# Probe 117 (0.16761 0.50827 0)
# Probe 118 (0.17181 0.51714 0)
# Probe 119 (0.17685 0.52556 0)
# Probe 120 (0.1827 0.53344 0)
# Probe 121 (0.18929 0.54071 0)
# Probe 122 (0.19656 0.5473 0)
# Probe 123 (0.20444 0.55315 0)
# Probe 124 (0.21286 0.55819 0)
# Probe 125 (0.22173 0.56239 0)
# Probe 126 (0.23097 0.56569 0)
# Probe 127 (0.24049 0.56808 0)
# Probe 128 (0.2502 0.56952 0)
# Probe 129 (0.2698 0.56952 0)
# Probe 130 (0.27951 0.56808 0)
# Probe 131 (0.28903 0.56569 0)
# Probe 132 (0.29827 0.56239 0)
# Probe 133 (0.30714 0.55819 0)
# Probe 134 (0.31556 0.55315 0)
# Probe 135 (0.32344 0.5473 0)
# Probe 136 (0.33071 0.54071 0)
# Probe 137 (0.3373 0.53344 0)
# Probe 138 (0.34315 0.52556 0)
# Probe 139 (0.34819 0.51714 0)
# Probe 140 (0.35239 0.50827 0)
# Probe 141 (0.35569 0.49903 0)
# Probe 142 (0.35808 0.48951 0)
# Probe 143 (0.35952 0.4798 0)
# Probe 144 (0.95857 0.62177 0)
# Probe 145 (0.95866 0.37611 0)
# Probe 146 (0.62615 0.95269 0)
# Probe 147 (0.62581 0.03889 0)
# Probe 148 (0.47477 0.96171 0)
# Probe 149 (0.47384 0.0394 0)
# Probe 150 (0.33227 0.94895 0)
# Probe 151 (0.04607 0.77784 0)
# Probe 152 (0.32708 0.03784 0)
# Probe 153 (0.9612 0.77745 0)
# Probe 154 (0.7768 0.04164 0)
# Probe 155 (0.03895 0.22936 0)
# Probe 156 (0.1869 0.38889 0)
# Probe 157 (0.17252 0.53467 0)
# Probe 158 (0.16688 0.41399 0)
# Probe 159 (0.77371 0.95748 0)
# Probe 160 (0.96116 0.22363 0)
# Probe 161 (0.15749 0.5065 0)
# Probe 162 (0.15487 0.44367 0)
# Probe 163 (0.15128 0.47518 0)
# Probe 164 (0.17399 0.04199 0)
# Probe 165 (0.17197 0.95711 0)
# Probe 166 (0.03736 0.62058 0)
# Probe 167 (0.03762 0.32359 0)
# Probe 168 (0.95251 0.47582 0)
# Probe 169 (0.87517 0.95715 0)
# Probe 170 (0.87494 0.04328 0)
# Probe 171 (0.03892 0.53064 0)
# Probe 172 (0.04493 0.12939 0)
# Probe 173 (0.04084 0.87257 0)
# Probe 174 (0.04104 0.42891 0)
# Probe 175 (0.96602 0.8745 0)
# Probe 176 (0.95838 0.12786 0)
# Probe 177 (0.07466 0.0491 0)
# Probe 178 (0.0753 0.95798 0)
# Probe 179 (0.0414 0.4666 0)
# Probe 180 (0.08385 0.499 0)
# Probe 181 (0.07507 0.44598 0)
# Probe 182 (0.07733 0.41466 0)
# Probe 183 (0.10453 0.43453 0)
# Probe 184 (0.10578 0.40488 0)
# Probe 185 (0.12747 0.42099 0)
# Probe 186 (0.13229 0.39468 0)
# Probe 187 (0.11009 0.37921 0)
# Probe 188 (0.13282 0.37057 0)
# Probe 189 (0.11363 0.35437 0)
# Probe 190 (0.13746 0.34548 0)
# Probe 191 (0.11757 0.32886 0)
# Probe 192 (0.14266 0.31968 0)
# Probe 193 (0.21406 0.37239 0)
# Probe 194 (0.1217 0.30167 0)
# Probe 195 (0.14782 0.29318 0)
# Probe 196 (0.16655 0.31084 0)
# Probe 197 (0.1737 0.28485 0)
# Probe 198 (0.24445 0.36263 0)
# Probe 199 (0.15472 0.26681 0)
# Probe 200 (0.1817 0.25832 0)
# Probe 201 (0.20163 0.28173 0)
# Probe 202 (0.20827 0.25207 0)
# Probe 203 (0.22934 0.27437 0)
# Probe 204 (0.23494 0.24556 0)
# Probe 205 (0.25357 0.26356 0)
# Probe 206 (0.28633 0.36487 0)
# Probe 207 (0.2606 0.23763 0)
# Probe 208 (0.27989 0.25638 0)
# Probe 209 (0.28657 0.23057 0)
# Probe 210 (0.30621 0.24952 0)
# Probe 211 (0.31262 0.2238 0)
# Probe 212 (0.33181 0.24302 0)
# Probe 213 (0.31572 0.37704 0)
# Probe 214 (0.33904 0.21636 0)
# Probe 215 (0.35779 0.23642 0)
# Probe 216 (0.35093 0.26147 0)
# Probe 217 (0.37548 0.25556 0)
# Probe 218 (0.36873 0.27934 0)
# Probe 219 (0.39271 0.27428 0)
# Probe 220 (0.34061 0.39724 0)
# Probe 221 (0.39975 0.252 0)
# Probe 222 (0.4172 0.27034 0)
# Probe 223 (0.40931 0.29312 0)
# Probe 224 (0.43342 0.28837 0)
# Probe 225 (0.42498 0.31191 0)
# Probe 226 (0.44916 0.30712 0)
# Probe 227 (0.44084 0.33053 0)
# Probe 228 (0.46498 0.3256 0)
# Probe 229 (0.45622 0.34819 0)
# Probe 230 (0.48055 0.34389 0)
# Probe 231 (0.47173 0.36638 0)
# Probe 232 (0.49623 0.3621 0)
# Probe 233 (0.48894 0.38558 0)
# Probe 234 (0.51238 0.38071 0)
# Probe 235 (0.50571 0.40456 0)
# Probe 236 (0.52912 0.3997 0)
# Probe 237 (0.5212 0.42369 0)
# Probe 238 (0.54606 0.41918 0)
# Probe 239 (0.53679 0.44385 0)
# Probe 240 (0.55356 0.39518 0)
# Probe 241 (0.56367 0.43942 0)
# Probe 242 (0.55367 0.46562 0)
# Probe 243 (0.58225 0.46076 0)
# Probe 244 (0.57231 0.48794 0)
# Probe 245 (0.3698 0.47498 0)
# Probe 246 (0.60195 0.48311 0)
# Probe 247 (0.5918 0.51289 0)
# Probe 248 (0.56165 0.51664 0)
# Probe 249 (0.58056 0.54199 0)
# Probe 250 (0.55217 0.54435 0)
# Probe 251 (0.36161 0.50657 0)
# Probe 252 (0.56969 0.56926 0)
# Probe 253 (0.53724 0.56955 0)
# Probe 254 (0.48859 0.32133 0)
# Probe 255 (0.55884 0.59711 0)
# Probe 256 (0.52844 0.60097 0)
# Probe 257 (0.58947 0.59113 0)
# Probe 258 (0.62284 0.508 0)
# Probe 259 (0.63296 0.47687 0)
# Probe 260 (0.44348 0.26699 0)
# Probe 261 (0.54807 0.62556 0)
# Probe 262 (0.51809 0.63065 0)
# Probe 263 (0.34696 0.53543 0)
# Probe 264 (0.36491 0.44326 0)
# Probe 265 (0.53741 0.65447 0)
# Probe 266 (0.50683 0.65895 0)
# Probe 267 (0.6543 0.50076 0)
# Probe 268 (0.66543 0.46877 0)
# Probe 269 (0.52659 0.68403 0)
# Probe 270 (0.55863 0.67914 0)
# Probe 271 (0.49496 0.68853 0)
# Probe 272 (0.47233 0.65987 0)
# Probe 273 (0.46335 0.69223 0)
# Probe 274 (0.4431 0.66977 0)
# Probe 275 (0.32456 0.55705 0)
# Probe 276 (0.43363 0.69672 0)
# Probe 277 (0.51071 0.44829 0)
# Probe 278 (0.41407 0.67125 0)
# Probe 279 (0.4052 0.69986 0)
# Probe 280 (0.38732 0.67895 0)
# Probe 281 (0.29748 0.57285 0)
# Probe 282 (0.37873 0.70359 0)
# Probe 283 (0.50635 0.57877 0)
# Probe 284 (0.68795 0.49479 0)
# Probe 285 (0.69932 0.46126 0)
# Probe 286 (0.36211 0.68313 0)
# Probe 287 (0.35266 0.70604 0)
# Probe 288 (0.23327 0.57572 0)
# Probe 289 (0.26531 0.57845 0)
# Probe 290 (0.33646 0.68691 0)
# Probe 291 (0.32645 0.71002 0)
# Probe 292 (0.31074 0.69076 0)
# Probe 293 (0.30052 0.71702 0)
# Probe 294 (0.28434 0.69427 0)
# Probe 295 (0.27365 0.72152 0)
# Probe 296 (0.25683 0.69824 0)
# Probe 297 (0.39508 0.72683 0)
# Probe 298 (0.42733 0.64981 0)
# Probe 299 (0.5459 0.71045 0)
# Probe 300 (0.58082 0.70472 0)
# Probe 301 (0.2455 0.72487 0)
# Probe 302 (0.32266 0.73425 0)
# Probe 303 (0.35812 0.42367 0)
# Probe 304 (0.21343 0.56809 0)
# Probe 305 (0.72244 0.48864 0)
# Probe 306 (0.71053 0.52271 0)
# Probe 307 (0.26478 0.36127 0)
# Probe 308 (0.46446 0.39212 0)
# Probe 309 (0.7337 0.4541 0)
# Probe 310 (0.71007 0.42689 0)
# Probe 311 (0.19521 0.55736 0)
# Probe 312 (0.37068 0.66003 0)
# Probe 313 (0.22739 0.70138 0)
# Probe 314 (0.74576 0.41919 0)
# Probe 315 (0.72058 0.39095 0)
# Probe 316 (0.74676 0.51549 0)
# Probe 317 (0.73403 0.55196 0)
# Probe 318 (0.56715 0.73814 0)
# Probe 319 (0.60415 0.73205 0)
# Probe 320 (0.75826 0.38325 0)
# Probe 321 (0.73184 0.35396 0)
# Probe 322 (0.43175 0.35232 0)
# Probe 323 (0.39874 0.31866 0)
# Probe 324 (0.26795 0.21047 0)
# Probe 325 (0.34603 0.28496 0)
# Probe 326 (0.21527 0.72979 0)
# Probe 327 (0.23327 0.75386 0)
# Probe 328 (0.32074 0.66567 0)
# Probe 329 (0.19086 0.23028 0)
# Probe 330 (0.77095 0.34596 0)
# Probe 331 (0.74415 0.31648 0)
# Probe 332 (0.70504 0.32474 0)
# Probe 333 (0.71716 0.28718 0)
# Probe 334 (0.67867 0.29599 0)
# Probe 335 (0.69009 0.25839 0)
# Probe 336 (0.65207 0.26704 0)
# Probe 337 (0.72859 0.24804 0)
# Probe 338 (0.19604 0.70469 0)
# Probe 339 (0.77215 0.54399 0)
# Probe 340 (0.75886 0.58144 0)
# Probe 341 (0.20287 0.76019 0)
# Probe 342 (0.59145 0.76654 0)
# Probe 343 (0.62859 0.76017 0)
# Probe 344 (0.55265 0.77257 0)
# Probe 345 (0.64134 0.72452 0)
# Probe 346 (0.66707 0.75237 0)
# Probe 347 (0.36642 0.20966 0)
# Probe 348 (0.22253 0.78696 0)
# Probe 349 (0.26732 0.66996 0)
# Probe 350 (0.66319 0.23136 0)
# Probe 351 (0.62528 0.23917 0)
# Probe 352 (0.21061 0.67417 0)
# Probe 353 (0.78399 0.40788 0)
# Probe 354 (0.78391 0.30773 0)
# Probe 355 (0.27361 0.27902 0)
# Probe 356 (0.17798 0.67925 0)
# Probe 357 (0.65354 0.79061 0)
# Probe 358 (0.69333 0.78378 0)
# Probe 359 (0.70684 0.74408 0)
# Probe 360 (0.73417 0.77636 0)
# Probe 361 (0.74721 0.73482 0)
# Probe 362 (0.45193 0.72151 0)
# Probe 363 (0.57786 0.80188 0)
# Probe 364 (0.539 0.80813 0)
# Probe 365 (0.6147 0.2748 0)
# Probe 366 (0.58951 0.24745 0)
# Probe 367 (0.59909 0.21168 0)
# Probe 368 (0.56403 0.22064 0)
# Probe 369 (0.5737 0.18507 0)
# Probe 370 (0.53893 0.19287 0)
# Probe 371 (0.72055 0.58829 0)
# Probe 372 (0.34575 0.18789 0)
# Probe 373 (0.37671 0.18078 0)
# Probe 374 (0.77723 0.76744 0)
# Probe 375 (0.78937 0.7222 0)
# Probe 376 (0.59161 0.43332 0)
# Probe 377 (0.18776 0.79311 0)
# Probe 378 (0.18874 0.65132 0)
# Probe 379 (0.51736 0.3603 0)
# Probe 380 (0.79794 0.57465 0)
# Probe 381 (0.81136 0.53583 0)
# Probe 382 (0.6108 0.17623 0)
# Probe 383 (0.16434 0.70768 0)
# Probe 384 (0.67921 0.82264 0)
# Probe 385 (0.66212 0.33447 0)
# Probe 386 (0.22027 0.29608 0)
# Probe 387 (0.53401 0.51888 0)
# Probe 388 (0.1601 0.6554 0)
# Probe 389 (0.17122 0.62959 0)
# Probe 390 (0.21195 0.82245 0)
# Probe 391 (0.25065 0.80943 0)
# Probe 392 (0.54827 0.15784 0)
# Probe 393 (0.51058 0.16445 0)
# Probe 394 (0.8116 0.33839 0)
# Probe 395 (0.82511 0.29781 0)
# Probe 396 (0.23718 0.85101 0)
# Probe 397 (0.27537 0.84358 0)
# Probe 398 (0.17412 0.8295 0)
# Probe 399 (0.19672 0.62618 0)
# Probe 400 (0.76205 0.80954 0)
# Probe 401 (0.80689 0.80059 0)
# Probe 402 (0.56424 0.8389 0)
# Probe 403 (0.35325 0.15707 0)
# Probe 404 (0.38542 0.14849 0)
# Probe 405 (0.14326 0.63263 0)
# Probe 406 (0.13049 0.65923 0)
# Probe 407 (0.15706 0.6057 0)
# Probe 408 (0.52521 0.84491 0)
# Probe 409 (0.49997 0.81389 0)
# Probe 410 (0.64135 0.53633 0)
# Probe 411 (0.83791 0.56754 0)
# Probe 412 (0.824 0.60461 0)
# Probe 413 (0.40951 0.17374 0)
# Probe 414 (0.48561 0.85042 0)
# Probe 415 (0.46157 0.81949 0)
# Probe 416 (0.44671 0.85572 0)
# Probe 417 (0.42295 0.82513 0)
# Probe 418 (0.40815 0.86126 0)
# Probe 419 (0.38487 0.83035 0)
# Probe 420 (0.57902 0.28198 0)
# Probe 421 (0.52627 0.22892 0)
# Probe 422 (0.71958 0.70539 0)
# Probe 423 (0.41876 0.14036 0)
# Probe 424 (0.59044 0.67353 0)
# Probe 425 (0.12709 0.61017 0)
# Probe 426 (0.13991 0.58311 0)
# Probe 427 (0.11144 0.58896 0)
# Probe 428 (0.12141 0.56372 0)
# Probe 429 (0.55059 0.87699 0)
# Probe 430 (0.85184 0.52817 0)
# Probe 431 (0.32165 0.16606 0)
# Probe 432 (0.39343 0.1149 0)
# Probe 433 (0.14895 0.79808 0)
# Probe 434 (0.37054 0.86535 0)
# Probe 435 (0.15641 0.36137 0)
# Probe 436 (0.8539 0.33067 0)
# Probe 437 (0.59011 0.87092 0)
# Probe 438 (0.79072 0.84326 0)
# Probe 439 (0.83422 0.8351 0)
# Probe 440 (0.26273 0.88169 0)
# Probe 441 (0.60214 0.30798 0)
# Probe 442 (0.52246 0.12822 0)
# Probe 443 (0.85162 0.79123 0)
# Probe 444 (0.74546 0.61813 0)
# Probe 445 (0.7075 0.62645 0)
# Probe 446 (0.29102 0.80793 0)
# Probe 447 (0.56014 0.12023 0)
# Probe 448 (0.86822 0.28886 0)
# Probe 449 (0.83824 0.25541 0)
# Probe 450 (0.36198 0.30112 0)
# Probe 451 (0.34185 0.30645 0)
# Probe 452 (0.35555 0.32032 0)
# Probe 453 (0.3374 0.32817 0)
# Probe 454 (0.3518 0.33868 0)
# Probe 455 (0.32379 0.31298 0)
# Probe 456 (0.31943 0.3309 0)
# Probe 457 (0.30725 0.31874 0)
# Probe 458 (0.30963 0.30195 0)
# Probe 459 (0.30342 0.33489 0)
# Probe 460 (0.2913 0.32385 0)
# Probe 461 (0.31423 0.34618 0)
# Probe 462 (0.16235 0.58306 0)
# Probe 463 (0.88072 0.56096 0)
# Probe 464 (0.32922 0.13259 0)
# Probe 465 (0.29505 0.14277 0)
# Probe 466 (0.82418 0.49643 0)
# Probe 467 (0.39373 0.8982 0)
# Probe 468 (0.6851 0.39837 0)
# Probe 469 (0.13194 0.83761 0)
# Probe 470 (0.36804 0.33393 0)
# Probe 471 (0.363 0.3505 0)
# Probe 472 (0.37977 0.34664 0)
# Probe 473 (0.37471 0.36287 0)
# Probe 474 (0.34655 0.35515 0)
# Probe 475 (0.39137 0.35932 0)
# Probe 476 (0.38605 0.37534 0)
# Probe 477 (0.37039 0.37863 0)
# Probe 478 (0.38114 0.39011 0)
# Probe 479 (0.3966 0.38746 0)
# Probe 480 (0.39086 0.4029 0)
# Probe 481 (0.40687 0.39956 0)
# Probe 482 (0.40207 0.41472 0)
# Probe 483 (0.41765 0.41165 0)
# Probe 484 (0.41228 0.42718 0)
# Probe 485 (0.42864 0.42404 0)
# Probe 486 (0.42298 0.44024 0)
# Probe 487 (0.44028 0.43708 0)
# Probe 488 (0.43414 0.45359 0)
# Probe 489 (0.41664 0.45648 0)
# Probe 490 (0.42761 0.47046 0)
# Probe 491 (0.44571 0.46741 0)
# Probe 492 (0.43871 0.48431 0)
# Probe 493 (0.42101 0.48708 0)
# Probe 494 (0.43173 0.50084 0)
# Probe 495 (0.45762 0.48204 0)
# Probe 496 (0.4121 0.50378 0)
# Probe 497 (0.42452 0.51705 0)
# Probe 498 (0.40826 0.52085 0)
# Probe 499 (0.41813 0.53326 0)
# Probe 500 (0.40169 0.53611 0)
# Probe 501 (0.41169 0.54941 0)
# Probe 502 (0.39154 0.55078 0)
# Probe 503 (0.40442 0.56554 0)
# Probe 504 (0.38695 0.5678 0)
# Probe 505 (0.44258 0.51607 0)
# Probe 506 (0.4205 0.56262 0)
# Probe 507 (0.39792 0.58229 0)
# Probe 508 (0.38012 0.5844 0)
# Probe 509 (0.36971 0.57065 0)
# Probe 510 (0.36322 0.5861 0)
# Probe 511 (0.39101 0.59962 0)
# Probe 512 (0.41023 0.59721 0)
# Probe 513 (0.40376 0.48848 0)
# Probe 514 (0.38651 0.53543 0)
# Probe 515 (0.39724 0.42832 0)
# Probe 516 (0.3538 0.57273 0)
# Probe 517 (0.34703 0.58732 0)
# Probe 518 (0.35549 0.60199 0)
# Probe 519 (0.33937 0.60222 0)
# Probe 520 (0.33154 0.58795 0)
# Probe 521 (0.32141 0.60118 0)
# Probe 522 (0.33189 0.61682 0)
# Probe 523 (0.31519 0.61739 0)
# Probe 524 (0.30535 0.60406 0)
# Probe 525 (0.29885 0.6181 0)
# Probe 526 (0.29012 0.6042 0)
# Probe 527 (0.28165 0.61825 0)
# Probe 528 (0.29138 0.63377 0)
# Probe 529 (0.42382 0.39644 0)
# Probe 530 (0.46461 0.46364 0)
# Probe 531 (0.47842 0.47838 0)
# Probe 532 (0.27312 0.63359 0)
# Probe 533 (0.26398 0.61784 0)
# Probe 534 (0.25477 0.63347 0)
# Probe 535 (0.24697 0.61707 0)
# Probe 536 (0.86538 0.48819 0)
# Probe 537 (0.68281 0.59519 0)
# Probe 538 (0.66929 0.63015 0)
# Probe 539 (0.3658 0.39429 0)
# Probe 540 (0.35975 0.55845 0)
# Probe 541 (0.56893 0.31455 0)
# Probe 542 (0.54715 0.29012 0)
# Probe 543 (0.5909 0.33898 0)
# Probe 544 (0.23551 0.63345 0)
# Probe 545 (0.39901 0.79594 0)
# Probe 546 (0.36287 0.80075 0)
# Probe 547 (0.64289 0.44455 0)
# Probe 548 (0.81842 0.8772 0)
# Probe 549 (0.84061 0.37254 0)
# Probe 550 (0.09207 0.56754 0)
# Probe 551 (0.74612 0.84927 0)
# Probe 552 (0.28747 0.33951 0)
# Probe 553 (0.27529 0.32912 0)
# Probe 554 (0.35586 0.38279 0)
# Probe 555 (0.15977 0.87144 0)
# Probe 556 (0.4731 0.77812 0)
# Probe 557 (0.44266 0.16602 0)
# Probe 558 (0.43296 0.19882 0)
# Probe 559 (0.45675 0.12725 0)
# Probe 560 (0.25655 0.60173 0)
# Probe 561 (0.2392 0.60178 0)
# Probe 562 (0.12595 0.44245 0)
# Probe 563 (0.87054 0.86781 0)
# Probe 564 (0.46982 0.4989 0)
# Probe 565 (0.49231 0.49664 0)
# Probe 566 (0.48262 0.51866 0)
# Probe 567 (0.53231 0.09387 0)
# Probe 568 (0.09215 0.3632 0)
# Probe 569 (0.40245 0.61558 0)
# Probe 570 (0.38226 0.61777 0)
# Probe 571 (0.42327 0.61305 0)
# Probe 572 (0.44633 0.42068 0)
# Probe 573 (0.10515 0.5424 0)
# Probe 574 (0.13337 0.54017 0)
# Probe 575 (0.11725 0.52046 0)
# Probe 576 (0.22764 0.88583 0)
# Probe 577 (0.45881 0.43356 0)
# Probe 578 (0.83855 0.45665 0)
# Probe 579 (0.87706 0.44666 0)
# Probe 580 (0.32467 0.63267 0)
# Probe 581 (0.34241 0.63053 0)
# Probe 582 (0.89819 0.32279 0)
# Probe 583 (0.30373 0.10762 0)
# Probe 584 (0.26735 0.1176 0)
# Probe 585 (0.25786 0.15396 0)
# Probe 586 (0.23126 0.13018 0)
# Probe 587 (0.22157 0.16578 0)
# Probe 588 (0.19515 0.14226 0)
# Probe 589 (0.2389 0.08814 0)
# Probe 590 (0.30221 0.87432 0)
# Probe 591 (0.43173 0.59344 0)
# Probe 592 (0.44573 0.61034 0)
# Probe 593 (0.45472 0.58883 0)
# Probe 594 (0.47086 0.60818 0)
# Probe 595 (0.11646 0.87936 0)
# Probe 596 (0.34647 0.561 0)
# Probe 597 (0.04784 0.39276 0)
# Probe 598 (0.24993 0.92193 0)
# Probe 599 (0.39565 0.63461 0)
# Probe 600 (0.88141 0.24675 0)
# Probe 601 (0.8517 0.21226 0)
# Probe 602 (0.80786 0.22159 0)
# Probe 603 (0.82087 0.1784 0)
# Probe 604 (0.77654 0.18786 0)
# Probe 605 (0.78924 0.14223 0)
# Probe 606 (0.74469 0.15426 0)
# Probe 607 (0.83396 0.13136 0)
# Probe 608 (0.64602 0.60304 0)
# Probe 609 (0.10708 0.80802 0)
# Probe 610 (0.12305 0.76505 0)
# Probe 611 (0.09887 0.61402 0)
# Probe 612 (0.248 0.5894 0)
# Probe 613 (0.28015 0.3123 0)
# Probe 614 (0.26308 0.31802 0)
# Probe 615 (0.25953 0.33451 0)
# Probe 616 (0.24714 0.32397 0)
# Probe 617 (0.24962 0.3065 0)
# Probe 618 (0.24468 0.34156 0)
# Probe 619 (0.23196 0.33022 0)
# Probe 620 (0.2294 0.34607 0)
# Probe 621 (0.21706 0.33577 0)
# Probe 622 (0.18585 0.17609 0)
# Probe 623 (0.15846 0.15214 0)
# Probe 624 (0.14912 0.18776 0)
# Probe 625 (0.11964 0.16221 0)
# Probe 626 (0.13025 0.12152 0)
# Probe 627 (0.11285 0.2014 0)
# Probe 628 (0.47135 0.88661 0)
# Probe 629 (0.46376 0.19106 0)
# Probe 630 (0.2137 0.35276 0)
# Probe 631 (0.20227 0.34149 0)
# Probe 632 (0.20332 0.32273 0)
# Probe 633 (0.19823 0.3572 0)
# Probe 634 (0.18718 0.34838 0)
# Probe 635 (0.18477 0.36194 0)
# Probe 636 (0.57699 0.91033 0)
# Probe 637 (0.53527 0.91717 0)
# Probe 638 (0.63331 0.63674 0)
# Probe 639 (0.65583 0.66405 0)
# Probe 640 (0.0955 0.31132 0)
# Probe 641 (0.09881 0.27939 0)
# Probe 642 (0.33934 0.09852 0)
# Probe 643 (0.89432 0.2032 0)
# Probe 644 (0.18293 0.6077 0)
# Probe 645 (0.20386 0.60474 0)
# Probe 646 (0.19291 0.58742 0)
# Probe 647 (0.75816 0.11134 0)
# Probe 648 (0.71395 0.12266 0)
# Probe 649 (0.69883 0.16348 0)
# Probe 650 (0.67116 0.13235 0)
# Probe 651 (0.68576 0.0847 0)
# Probe 652 (0.24847 0.65392 0)
# Probe 653 (0.2966 0.59293 0)
# Probe 654 (0.28281 0.59157 0)
# Probe 655 (0.08084 0.17179 0)
# Probe 656 (0.37508 0.7701 0)
# Probe 657 (0.34173 0.77558 0)
# Probe 658 (0.63858 0.82901 0)
# Probe 659 (0.66461 0.86244 0)
# Probe 660 (0.57274 0.08138 0)
# Probe 661 (0.60146 0.11248 0)
# Probe 662 (0.79806 0.46858 0)
# Probe 663 (0.14413 0.56005 0)
# Probe 664 (0.14604 0.40945 0)
# Probe 665 (0.45652 0.2217 0)
# Probe 666 (0.10262 0.4609 0)
# Probe 667 (0.12607 0.46737 0)
# Probe 668 (0.56145 0.34382 0)
# Probe 669 (0.14039 0.51997 0)
# Probe 670 (0.12919 0.50391 0)
# Probe 671 (0.14963 0.5333 0)
# Probe 672 (0.39684 0.34249 0)
# Probe 673 (0.1477 0.42464 0)
# Probe 674 (0.19534 0.37041 0)
# Probe 675 (0.40811 0.75789 0)
# Probe 676 (0.35554 0.90216 0)
# Probe 677 (0.38392 0.93744 0)
# Probe 678 (0.21066 0.58773 0)
# Probe 679 (0.15154 0.38217 0)
# Probe 680 (0.45998 0.63007 0)
# Probe 681 (0.04103 0.57107 0)
# Probe 682 (0.46496 0.41543 0)
# Probe 683 (0.47834 0.43097 0)
# Probe 684 (0.58265 0.36766 0)
# Probe 685 (0.61149 0.36315 0)
# Probe 686 (0.59843 0.39649 0)
# Probe 687 (0.62988 0.38501 0)
# Probe 688 (0.732 0.65601 0)
# Probe 689 (0.77104 0.6489 0)
# Probe 690 (0.47962 0.58455 0)
# Probe 691 (0.46333 0.56635 0)
# Probe 692 (0.48721 0.56053 0)
# Probe 693 (0.51014 0.55111 0)
# Probe 694 (0.49849 0.60523 0)
# Probe 695 (0.41861 0.92405 0)
# Probe 696 (0.48703 0.21693 0)
# Probe 697 (0.47876 0.24679 0)
# Probe 698 (0.6182 0.90474 0)
# Probe 699 (0.46975 0.5401 0)
# Probe 700 (0.44853 0.54781 0)
# Probe 701 (0.29887 0.34879 0)
# Probe 702 (0.3073 0.3596 0)
# Probe 703 (0.32337 0.35782 0)
# Probe 704 (0.3281 0.34352 0)
# Probe 705 (0.492 0.1037 0)
# Probe 706 (0.22616 0.35788 0)
# Probe 707 (0.35924 0.36732 0)
# Probe 708 (0.34573 0.37286 0)
# Probe 709 (0.15903 0.33623 0)
# Probe 710 (0.1677 0.37736 0)
# Probe 711 (0.16599 0.39292 0)
# Probe 712 (0.34639 0.66566 0)
# Probe 713 (0.37479 0.55602 0)
# Probe 714 (0.36518 0.54506 0)
# Probe 715 (0.03658 0.27537 0)
# Probe 716 (0.33729 0.57308 0)
# Probe 717 (0.32256 0.57526 0)
# Probe 718 (0.31599 0.58553 0)
# Probe 719 (0.28277 0.65141 0)
# Probe 720 (0.32537 0.27025 0)
# Probe 721 (0.29898 0.27304 0)
# Probe 722 (0.35116 0.54724 0)
# Probe 723 (0.31033 0.57471 0)
# Probe 724 (0.35115 0.74812 0)
# Probe 725 (0.41027 0.35598 0)
# Probe 726 (0.41724 0.33531 0)
# Probe 727 (0.42199 0.36994 0)
# Probe 728 (0.44585 0.37202 0)
# Probe 729 (0.14033 0.22053 0)
# Probe 730 (0.1094 0.24273 0)
# Probe 731 (0.50025 0.47475 0)
# Probe 732 (0.51692 0.49486 0)
# Probe 733 (0.41065 0.47303 0)
# Probe 734 (0.4009 0.46019 0)
# Probe 735 (0.39526 0.4749 0)
# Probe 736 (0.38688 0.48758 0)
# Probe 737 (0.38742 0.4634 0)
# Probe 738 (0.39116 0.45024 0)
# Probe 739 (0.39558 0.50106 0)
# Probe 740 (0.38229 0.50163 0)
# Probe 741 (0.38827 0.51279 0)
# Probe 742 (0.3748 0.49212 0)
# Probe 743 (0.37845 0.45501 0)
# Probe 744 (0.38229 0.44107 0)
# Probe 745 (0.37728 0.51336 0)
# Probe 746 (0.27222 0.60304 0)
# Probe 747 (0.21361 0.64497 0)
# Probe 748 (0.29611 0.6711 0)
# Probe 749 (0.21072 0.20173 0)
# Probe 750 (0.32744 0.80498 0)
# Probe 751 (0.655 0.17107 0)
# Probe 752 (0.18899 0.30604 0)
# Probe 753 (0.38421 0.29719 0)
# Probe 754 (0.40493 0.44321 0)
# Probe 755 (0.43467 0.78857 0)
# Probe 756 (0.5395 0.31888 0)
# Probe 757 (0.51874 0.29547 0)
# Probe 758 (0.52483 0.2688 0)
# Probe 759 (0.5242 0.03462 0)
# Probe 760 (0.49556 0.2762 0)
# Probe 761 (0.25911 0.35044 0)
# Probe 762 (0.27275 0.34369 0)
# Probe 763 (0.04525 0.66982 0)
# Probe 764 (0.04212 0.72704 0)
# Probe 765 (0.08031 0.70215 0)
# Probe 766 (0.09309 0.66422 0)
# Probe 767 (0.08128 0.74614 0)
# Probe 768 (0.51307 0.77765 0)
# Probe 769 (0.49577 0.74557 0)
# Probe 770 (0.53161 0.743 0)
# Probe 771 (0.35769 0.51634 0)
# Probe 772 (0.36474 0.49629 0)
# Probe 773 (0.35294 0.52602 0)
# Probe 774 (0.36354 0.52459 0)
# Probe 775 (0.3688 0.46356 0)
# Probe 776 (0.64076 0.30453 0)
# Probe 777 (0.14392 0.91653 0)
# Probe 778 (0.33251 0.55022 0)
# Probe 779 (0.31573 0.56448 0)
# Probe 780 (0.36204 0.43349 0)
# Probe 781 (0.36874 0.42508 0)
# Probe 782 (0.36358 0.41481 0)
# Probe 783 (0.3755 0.41471 0)
# Probe 784 (0.28649 0.57359 0)
# Probe 785 (0.34719 0.40531 0)
# Probe 786 (0.33301 0.38966 0)
# Probe 787 (0.25468 0.57825 0)
# Probe 788 (0.30764 0.77923 0)
# Probe 789 (0.27519 0.77823 0)
# Probe 790 (0.32463 0.38282 0)
# Probe 791 (0.3254 0.37213 0)
# Probe 792 (0.30707 0.37159 0)
# Probe 793 (0.38157 0.47525 0)
# Probe 794 (0.22178 0.04274 0)
# Probe 795 (0.27318 0.04284 0)
# Probe 796 (0.66027 0.56598 0)
# Probe 797 (0.62309 0.57383 0)
# Probe 798 (0.27799 0.57904 0)
# Probe 799 (0.22349 0.60001 0)
# Probe 800 (0.21749 0.62062 0)
# Probe 801 (0.30277 0.64994 0)
# Probe 802 (0.17942 0.3964 0)
# Probe 803 (0.23569 0.58784 0)
# Probe 804 (0.24372 0.57813 0)
# Probe 805 (0.29698 0.36773 0)
# Probe 806 (0.27592 0.36285 0)
# Probe 807 (0.6924 0.36122 0)
# Probe 808 (0.26 0.58777 0)
# Probe 809 (0.42934 0.22593 0)
# Probe 810 (0.40023 0.20738 0)
# Probe 811 (0.04075 0.82772 0)
# Probe 812 (0.48776 0.63216 0)
# Probe 813 (0.52692 0.46979 0)
# Probe 814 (0.54425 0.49229 0)
# Probe 815 (0.48659 0.45358 0)
# Probe 816 (0.95767 0.42402 0)
# Probe 817 (0.92015 0.39303 0)
# Probe 818 (0.114 0.72424 0)
# Probe 819 (0.44368 0.39111 0)
# Probe 820 (0.69736 0.55833 0)
# Probe 821 (0.23968 0.67649 0)
# Probe 822 (0.25488 0.36086 0)
# Probe 823 (0.37456 0.03703 0)
# Probe 824 (0.42393 0.03893 0)
# Probe 825 (0.45285 0.07996 0)
# Probe 826 (0.72743 0.20067 0)
# Probe 827 (0.35195 0.39514 0)
# Probe 828 (0.28389 0.35361 0)
# Probe 829 (0.16693 0.52583 0)
# Probe 830 (0.17889 0.54323 0)
# Probe 831 (0.16732 0.54508 0)
# Probe 832 (0.17459 0.55429 0)
# Probe 833 (0.17249 0.40499 0)
# Probe 834 (0.16136 0.4233 0)
# Probe 835 (0.22343 0.57195 0)
# Probe 836 (0.204 0.56337 0)
# Probe 837 (0.1934 0.57027 0)
# Probe 838 (0.44325 0.75484 0)
# Probe 839 (0.10877 0.50149 0)
# Probe 840 (0.90552 0.48023 0)
# Probe 841 (0.15387 0.49657 0)
# Probe 842 (0.16192 0.5163 0)
# Probe 843 (0.3582 0.40396 0)
# Probe 844 (0.67648 0.95726 0)
# Probe 845 (0.28646 0.17917 0)
# Probe 846 (0.15136 0.46472 0)
# Probe 847 (0.15167 0.48595 0)
# Probe 848 (0.13947 0.47938 0)
# Probe 849 (0.14092 0.4928 0)
# Probe 850 (0.38263 0.42893 0)
# Probe 851 (0.15796 0.43349 0)
# Probe 852 (0.15183 0.45386 0)
# Probe 853 (0.75837 0.68891 0)
# Probe 854 (0.79996 0.68002 0)
# Probe 855 (0.83103 0.71026 0)
# Probe 856 (0.84112 0.66914 0)
# Probe 857 (0.87474 0.69937 0)
# Probe 858 (0.8823 0.65595 0)
# Probe 859 (0.91668 0.68536 0)
# Probe 860 (0.90697 0.72838 0)
# Probe 861 (0.6949 0.67006 0)
# Probe 862 (0.67596 0.70774 0)
# Probe 863 (0.95309 0.72397 0)
# Probe 864 (0.90335 0.78208 0)
# Probe 865 (0.94962 0.32263 0)
# Probe 866 (0.95931 0.52669 0)
# Probe 867 (0.95902 0.57488 0)
# Probe 868 (0.91342 0.59536 0)
# Probe 869 (0.72489 0.95746 0)
# Probe 870 (0.70428 0.91944 0)
# Probe 871 (0.74958 0.91939 0)
# Probe 872 (0.35296 0.41428 0)
# Probe 873 (0.18333 0.37627 0)
# Probe 874 (0.40303 0.37214 0)
# Probe 875 (0.57731 0.95803 0)
# Probe 876 (0.84564 0.41623 0)
# Probe 877 (0.62104 0.42105 0)
# Probe 878 (0.95705 0.27224 0)
# Probe 879 (0.2715 0.58795 0)
# Probe 880 (0.67224 0.03913 0)
# Probe 881 (0.72514 0.04655 0)
# Probe 882 (0.33485 0.36504 0)
# Probe 883 (0.12477 0.04305 0)
# Probe 884 (0.10586 0.08822 0)
# Probe 885 (0.18655 0.55076 0)
# Probe 886 (0.07237 0.5461 0)
# Probe 887 (0.12455 0.95765 0)
# Probe 888 (0.37379 0.31662 0)
# Probe 889 (0.14219 0.44613 0)
# Probe 890 (0.55629 0.25645 0)
# Probe 891 (0.16452 0.76413 0)
# Probe 892 (0.95503 0.82826 0)
# Probe 893 (0.90484 0.83486 0)
# Probe 894 (0.82396 0.9578 0)
# Probe 895 (0.82529 0.04304 0)
# Probe 896 (0.85192 0.08613 0)
# Probe 897 (0.90147 0.08194 0)
# Probe 898 (0.80032 0.0877 0)
# Probe 899 (0.9247 0.04216 0)
# Probe 900 (0.96086 0.17525 0)
# Probe 901 (0.91581 0.15942 0)
# Probe 902 (0.9248 0.95769 0)
# Probe 903 (0.89915 0.91603 0)
# Probe 904 (0.79627 0.26504 0)
# Probe 905 (0.37686 0.63937 0)
# Probe 906 (0.36215 0.62182 0)
# Probe 907 (0.78492 0.50698 0)
# Probe 908 (0.82097 0.75732 0)
# Probe 909 (0.27563 0.95814 0)
# Probe 910 (0.2909 0.91381 0)
# Probe 911 (0.3403 0.54278 0)
# Probe 912 (0.29104 0.29435 0)
# Probe 913 (0.34883 0.83389 0)
# Probe 914 (0.4769 0.15912 0)
# Probe 915 (0.67594 0.43524 0)
# Probe 916 (0.14059 0.45941 0)
# Probe 917 (0.31334 0.83827 0)
# Probe 918 (0.14995 0.08227 0)
# Probe 919 (0.88598 0.36205 0)
# Probe 920 (0.60946 0.53976 0)
# Probe 921 (0.62259 0.33294 0)
# Probe 922 (0.12485 0.4877 0)
# Probe 923 (0.36728 0.45286 0)
# Probe 924 (0.61512 0.6987 0)
# Probe 925 (0.19289 0.08046 0)
# Probe 926 (0.86564 0.16853 0)
# Probe 927 (0.8917 0.51978 0)
# Probe 928 (0.22148 0.95873 0)
# Probe 929 (0.71993 0.81603 0)
# Probe 930 (0.84686 0.91536 0)
# Probe 931 (0.91181 0.27996 0)
# Probe 932 (0.86603 0.59687 0)
# Probe 933 (0.50833 0.523 0)
# Probe 934 (0.78449 0.61174 0)
# Probe 935 (0.67529 0.52981 0)
# Probe 936 (0.48108 0.71738 0)
# Probe 937 (0.37245 0.43598 0)
# Probe 938 (0.61517 0.79654 0)
# Probe 939 (0.07073 0.59581 0)
# Probe 940 (0.37609 0.40281 0)
# Probe 941 (0.51057 0.88227 0)
# Probe 942 (0.79755 0.37399 0)
# Probe 943 (0.75627 0.27697 0)
# Probe 944 (0.51983 0.95968 0)
# Probe 945 (0.09683 0.9203 0)
# Probe 946 (0.25098 0.28559 0)
# Probe 947 (0.18252 0.33115 0)
# Probe 948 (0.17119 0.35189 0)
# Probe 949 (0.19952 0.85856 0)
# Probe 950 (0.57817 0.62056 0)
# Probe 951 (0.0388 0.07767 0)
# Probe 952 (0.38319 0.23167 0)
# Probe 953 (0.04692 0.92171 0)
# Probe 954 (0.95433 0.0786 0)
# Probe 955 (0.64163 0.10286 0)
# Probe 956 (0.95422 0.92038 0)
# Probe 957 (0.61212 0.45328 0)
# Probe 958 (0.47497 0.29766 0)
# Probe 959 (0.03937 0.18181 0)
# Probe 960 (0.09024 0.1299 0)
# Probe 961 (0.56746 0.64933 0)
# Probe 962 (0.34375 0.38638 0)
# Probe 963 (0.42287 0.72628 0)
# Probe 964 (0.8679 0.74949 0)
# Probe 965 (0.08361 0.84785 0)
# Probe 966 (0.45508 0.28597 0)
# Probe 967 (0.29385 0.74883 0)
# Probe 968 (0.65969 0.37426 0)
# Probe 969 (0.43282 0.89145 0)
# Probe 970 (0.37354 0.60075 0)