# Probe 0 (0 0 0)
# Probe 1 (1 0 0)
# Probe 2 (1 1 0)
# Probe 3 (0 1 0)
# Probe 4 (0.54 0.51 0)
# Probe 5 (0.44 0.41 0)
# Probe 6 (0.34 0.51 0)
# Probe 7 (0.44 0.61 0)
# Probe 8 (0.05 0 0)
# Probe 9 (0.1 0 0)
# Probe 10 (0.15 0 0)
# Probe 11 (0.2 0 0)
# Probe 12 (0.25 0 0)
# Probe 13 (0.3 0 0)
# Probe 14 (0.35 0 0)
# Probe 15 (0.4 0 0)
# Probe 16 (0.45 0 0)
# Probe 17 (0.5 0 0)
# Probe 18 (0.55 0 0)
# Probe 19 (0.6 0 0)
# Probe 20 (0.65 0 0)
# Probe 21 (0.7 0 0)
# Probe 22 (0.75 0 0)
# Probe 23 (0.8 0 0)
# Probe 24 (0.85 0 0)
# Probe 25 (0.9 0 0)
# Probe 26 (0.95 0 0)
# Probe 27 (1 0.05 0)
# Probe 28 (1 0.1 0)
# Probe 29 (1 0.15 0)
# Probe 30 (1 0.2 0)
# Probe 31 (1 0.25 0)
# Probe 32 (1 0.3 0)
# Probe 33 (1 0.35 0)
# Probe 34 (1 0.4 0)
# Probe 35 (1 0.45 0)
# Probe 36 (1 0.5 0)
# Probe 37 (1 0.55 0)
# Probe 38 (1 0.6 0)
# Probe 39 (1 0.65 0)
# Probe 40 (1 0.7 0)
# Probe 41 (1 0.75 0)
# Probe 42 (1 0.8 0)
# Probe 43 (1 0.85 0)
# Probe 44 (1 0.9 0)
# Probe 45 (1 0.95 0)
# Probe 46 (0.95 1 0)
# Probe 47 (0.9 1 0)
# Probe 48 (0.85 1 0)
# Probe 49 (0.8 1 0)
# Probe 50 (0.75 1 0)
# Probe 51 (0.7 1 0)
# Probe 52 (0.65 1 0)
# Probe 53 (0.6 1 0)
# Probe 54 (0.55 1 0)
# Probe 55 (0.5 1 0)
# Probe 56 (0.45 1 0)
# Probe 57 (0.4 1 0)
# Probe 58 (0.35 1 0)
# Probe 59 (0.3 1 0)
# Probe 60 (0.25 1 0)
# Probe 61 (0.2 1 0)
# Probe 62 (0.15 1 0)
# Probe 63 (0.1 1 0)
# Probe 64 (0.05 1 0)
# Probe 65 (0 0.95 0)
# Probe 66 (0 0.9 0)
# Probe 67 (0 0.85 0)
# Probe 68 (0 0.8 0)
# Probe 69 (0 0.75 0)
# Probe 70 (0 0.7 0)
# Probe 71 (0 0.65 0)
# Probe 72 (0 0.6 0)
# Probe 73 (0 0.55 0)
# Probe 74 (0 0.5 0)
# Probe 75 (0 0.45 0)
# Probe 76 (0 0.4 0)
# Probe 77 (0 0.35 0)
# Probe 78 (0 0.3 0)
# Probe 79 (0 0.25 0)
# Probe 80 (0 0.2 0)
# Probe 81 (0 0.15 0)
# Probe 82 (0 0.1 0)
# Probe 83 (0 0.05 0)
# Probe 84 (0.53952 0.5002 0)
# Probe 85 (0.53808 0.49049 0)
# Probe 86 (0.53569 0.48097 0)
# Probe 87 (0.53239 0.47173 0)
# Probe 88 (0.52819 0.46286 0)
# Probe 89 (0.52315 0.45444 0)
# Probe 90 (0.5173 0.44656 0)
# Probe 91 (0.51071 0.43929 0)
# Probe 92 (0.50344 0.4327 0)
# Probe 93 (0.49556 0.42685 0)
# Probe 94 (0.48714 0.42181 0)
# Probe 95 (0.47827 0.41761 0)
# Probe 96 (0.46903 0.41431 0)
# Probe 97 (0.45951 0.41192 0)
# Probe 98 (0.4498 0.41048 0)
# Probe 99 (0.4302 0.41048 0)
# Probe 100 (0.42049 0.41192 0)
# Probe 101 (0.41097 0.41431 0)
# Probe 102 (0.40173 0.41761 0)
# Probe 103 (0.39286 0.42181 0)
# Probe 104 (0.38444 0.42685 0)
# Probe 105 (0.37656 0.4327 0)
# Probe 106 (0.36929 0.43929 0)
# Probe 107 (0.3627 0.44656 0)
# Probe 108 (0.35685 0.45444 0)
# Probe 109 (0.35181 0.46286 0)
# Probe 110 (0.34761 0.47173 0)
# Probe 111 (0.34431 0.48097 0)
# Probe 112 (0.34192 0.49049 0)
# Probe 113 (0.34048 0.5002 0)
# Probe 114 (0.34048 0.5198 0)
# Probe 115 (0.34192 0.52951 0)
# Probe 116 (0.34431 0.53903 0)
# Probe 117 (0.34761 0.54827 0)
# Probe 118 (0.35181 0.55714 0)
# Probe 119 (0.35685 0.56556 0)
# Probe 120 (0.3627 0.57344 0)
# Probe 121 (0.36929 0.58071 0)
# Probe 122 (0.37656 0.5873 0)
# Probe 123 (0.38444 0.59315 0)
# Probe 124 (0.39286 0.59819 0)
# Probe 125 (0.40173 0.60239 0)
# Probe 126 (0.41097 0.60569 0)
# Probe 127 (0.42049 0.60808 0)
# Probe 128 (0.4302 0.60952 0)
# Probe 129 (0.4498 0.60952 0)
# Probe 130 (0.45951 0.60808 0)
# Probe 131 (0.46903 0.60569 0)
# Probe 132 (0.47827 0.60239 0)
# Probe 133 (0.48714 0.59819 0)
# Probe 134 (0.49556 0.59315 0)
# Probe 135 (0.50344 0.5873 0)
# Probe 136 (0.51071 0.58071 0)
# Probe 137 (0.5173 0.57344 0)
# Probe 138 (0.52315 0.56556 0)
# Probe 139 (0.52819 0.55714 0)
# Probe 140 (0.53239 0.54827 0)
# Probe 141 (0.53569 0.53903 0)
# Probe 142 (0.53808 0.52951 0)
# Probe 143 (0.53952 0.5198 0)
# Probe 144 (0.95836 0.27733 0)
# Probe 145 (0.95567 0.72394 0)
# Probe 146 (0.67967 0.03957 0)
# Probe 147 (0.675 0.9567 0)
# Probe 148 (0.95629 0.42083 0)
# Probe 149 (0.95919 0.57187 0)
# Probe 150 (0.27105 0.03811 0)
# Probe 151 (0.03957 0.27458 0)
# Probe 152 (0.27786 0.96347 0)
# Probe 153 (0.04612 0.7216 0)
# Probe 154 (0.52232 0.04056 0)
# Probe 155 (0.52219 0.95713 0)
# Probe 156 (0.04389 0.4219 0)
# Probe 157 (0.03782 0.57763 0)
# Probe 158 (0.82141 0.96566 0)
# Probe 159 (0.83076 0.04148 0)
# Probe 160 (0.04392 0.17551 0)
# Probe 161 (0.04269 0.82409 0)
# Probe 162 (0.4273 0.95804 0)
# Probe 163 (0.17912 0.95985 0)
# Probe 164 (0.42482 0.04647 0)
# Probe 165 (0.17543 0.03735 0)
# Probe 166 (0.95766 0.82632 0)
# Probe 167 (0.95131 0.18313 0)
# Probe 168 (0.92205 0.95485 0)
# Probe 169 (0.043 0.92058 0)
# Probe 170 (0.03905 0.07257 0)
# Probe 171 (0.92577 0.04002 0)
# Probe 172 (0.4753 0.95841 0)
# Probe 173 (0.49319 0.91417 0)
# Probe 174 (0.54294 0.91684 0)
# Probe 175 (0.51927 0.88085 0)
# Probe 176 (0.55963 0.87918 0)
# Probe 177 (0.53871 0.84799 0)
# Probe 178 (0.50418 0.84984 0)
# Probe 179 (0.57483 0.84588 0)
# Probe 180 (0.55745 0.81736 0)
# Probe 181 (0.47619 0.61175 0)
# Probe 182 (0.59006 0.81435 0)
# Probe 183 (0.57374 0.78757 0)
# Probe 184 (0.604 0.78471 0)
# Probe 185 (0.58361 0.75571 0)
# Probe 186 (0.50446 0.59711 0)
# Probe 187 (0.61638 0.75585 0)
# Probe 188 (0.55476 0.76579 0)
# Probe 189 (0.60114 0.73076 0)
# Probe 190 (0.63042 0.72961 0)
# Probe 191 (0.61426 0.70622 0)
# Probe 192 (0.52709 0.57486 0)
# Probe 193 (0.64305 0.70406 0)
# Probe 194 (0.66026 0.72841 0)
# Probe 195 (0.67344 0.70129 0)
# Probe 196 (0.65563 0.67614 0)
# Probe 197 (0.68595 0.67409 0)
# Probe 198 (0.67103 0.65036 0)
# Probe 199 (0.69874 0.64749 0)
# Probe 200 (0.68233 0.62535 0)
# Probe 201 (0.54483 0.53627 0)
# Probe 202 (0.71086 0.62136 0)
# Probe 203 (0.68984 0.59795 0)
# Probe 204 (0.69155 0.72682 0)
# Probe 205 (0.72222 0.59504 0)
# Probe 206 (0.70598 0.57123 0)
# Probe 207 (0.7349 0.56874 0)
# Probe 208 (0.71817 0.54562 0)
# Probe 209 (0.69047 0.54779 0)
# Probe 210 (0.70162 0.52273 0)
# Probe 211 (0.54871 0.49345 0)
# Probe 212 (0.72917 0.52005 0)
# Probe 213 (0.71219 0.49844 0)
# Probe 214 (0.68556 0.50169 0)
# Probe 215 (0.6951 0.47615 0)
# Probe 216 (0.72312 0.47424 0)
# Probe 217 (0.70563 0.45068 0)
# Probe 218 (0.6776 0.45473 0)
# Probe 219 (0.687 0.42854 0)
# Probe 220 (0.5382 0.46342 0)
# Probe 221 (0.71581 0.42376 0)
# Probe 222 (0.69673 0.40199 0)
# Probe 223 (0.66844 0.40699 0)
# Probe 224 (0.67778 0.38064 0)
# Probe 225 (0.65046 0.38635 0)
# Probe 226 (0.65906 0.35992 0)
# Probe 227 (0.52024 0.4364 0)
# Probe 228 (0.68503 0.35137 0)
# Probe 229 (0.62864 0.36842 0)
# Probe 230 (0.63998 0.3401 0)
# Probe 231 (0.61375 0.34512 0)
# Probe 232 (0.62243 0.31922 0)
# Probe 233 (0.59568 0.32457 0)
# Probe 234 (0.49549 0.41696 0)
# Probe 235 (0.60431 0.29849 0)
# Probe 236 (0.57734 0.30402 0)
# Probe 237 (0.63225 0.29262 0)
# Probe 238 (0.58625 0.27711 0)
# Probe 239 (0.55822 0.28287 0)
# Probe 240 (0.72365 0.64378 0)
# Probe 241 (0.65384 0.62713 0)
# Probe 242 (0.54933 0.5151 0)
# Probe 243 (0.53805 0.55644 0)
# Probe 244 (0.47598 0.40654 0)
# Probe 245 (0.56764 0.2549 0)
# Probe 246 (0.53866 0.26153 0)
# Probe 247 (0.5303 0.28831 0)
# Probe 248 (0.51127 0.26802 0)
# Probe 249 (0.44532 0.40175 0)
# Probe 250 (0.50376 0.29355 0)
# Probe 251 (0.48523 0.27431 0)
# Probe 252 (0.4918 0.24998 0)
# Probe 253 (0.46504 0.2559 0)
# Probe 254 (0.45696 0.28394 0)
# Probe 255 (0.44006 0.2638 0)
# Probe 256 (0.43119 0.28706 0)
# Probe 257 (0.41545 0.27055 0)
# Probe 258 (0.4035 0.40789 0)
# Probe 259 (0.40808 0.29364 0)
# Probe 260 (0.39106 0.27571 0)
# Probe 261 (0.38438 0.29991 0)
# Probe 262 (0.36666 0.28266 0)
# Probe 263 (0.35985 0.30665 0)
# Probe 264 (0.34143 0.28925 0)
# Probe 265 (0.33401 0.31401 0)
# Probe 266 (0.36735 0.4295 0)
# Probe 267 (0.3152 0.29478 0)
# Probe 268 (0.30758 0.3214 0)
# Probe 269 (0.28756 0.30139 0)
# Probe 270 (0.28096 0.32884 0)
# Probe 271 (0.36969 0.25504 0)
# Probe 272 (0.29443 0.27384 0)
# Probe 273 (0.26629 0.28085 0)
# Probe 274 (0.38446 0.41698 0)
# Probe 275 (0.35295 0.44544 0)
# Probe 276 (0.64248 0.412 0)
# Probe 277 (0.52111 0.31249 0)
# Probe 278 (0.27339 0.25057 0)
# Probe 279 (0.44226 0.24182 0)
# Probe 280 (0.24156 0.25917 0)
# Probe 281 (0.58801 0.34885 0)
# Probe 282 (0.49744 0.31712 0)
# Probe 283 (0.30297 0.35 0)
# Probe 284 (0.27506 0.35571 0)
# Probe 285 (0.62124 0.81218 0)
# Probe 286 (0.42493 0.31054 0)
# Probe 287 (0.25139 0.22429 0)
# Probe 288 (0.51133 0.33355 0)
# Probe 289 (0.58828 0.70787 0)
# Probe 290 (0.29278 0.37473 0)
# Probe 291 (0.26864 0.38093 0)
# Probe 292 (0.24908 0.36321 0)
# Probe 293 (0.24309 0.39094 0)
# Probe 294 (0.22041 0.36952 0)
# Probe 295 (0.21613 0.39888 0)
# Probe 296 (0.2373 0.41912 0)
# Probe 297 (0.33299 0.49411 0)
# Probe 298 (0.21092 0.42717 0)
# Probe 299 (0.23181 0.44601 0)
# Probe 300 (0.33803 0.4733 0)
# Probe 301 (0.20569 0.45468 0)
# Probe 302 (0.22667 0.47245 0)
# Probe 303 (0.20075 0.48193 0)
# Probe 304 (0.22592 0.50027 0)
# Probe 305 (0.33232 0.52638 0)
# Probe 306 (0.19617 0.5093 0)
# Probe 307 (0.21726 0.52772 0)
# Probe 308 (0.18799 0.53696 0)
# Probe 309 (0.21121 0.55539 0)
# Probe 310 (0.34229 0.55634 0)
# Probe 311 (0.17914 0.56638 0)
# Probe 312 (0.20462 0.58336 0)
# Probe 313 (0.23143 0.57269 0)
# Probe 314 (0.22792 0.60005 0)
# Probe 315 (0.20155 0.61072 0)
# Probe 316 (0.22411 0.62814 0)
# Probe 317 (0.36024 0.58186 0)
# Probe 318 (0.2536 0.6164 0)
# Probe 319 (0.24707 0.64511 0)
# Probe 320 (0.22065 0.65662 0)
# Probe 321 (0.24411 0.67353 0)
# Probe 322 (0.27174 0.65955 0)
# Probe 323 (0.41367 0.61513 0)
# Probe 324 (0.38346 0.60287 0)
# Probe 325 (0.26762 0.6894 0)
# Probe 326 (0.29292 0.67844 0)
# Probe 327 (0.2901 0.70552 0)
# Probe 328 (0.31471 0.69445 0)
# Probe 329 (0.31206 0.72073 0)
# Probe 330 (0.33692 0.70999 0)
# Probe 331 (0.33423 0.73718 0)
# Probe 332 (0.26431 0.71741 0)
# Probe 333 (0.35986 0.72581 0)
# Probe 334 (0.44532 0.61825 0)
# Probe 335 (0.35707 0.75408 0)
# Probe 336 (0.38323 0.74176 0)
# Probe 337 (0.32975 0.765 0)
# Probe 338 (0.38075 0.77131 0)
# Probe 339 (0.40737 0.7587 0)
# Probe 340 (0.40949 0.72685 0)
# Probe 341 (0.28668 0.39824 0)
# Probe 342 (0.19392 0.37923 0)
# Probe 343 (0.31717 0.66579 0)
# Probe 344 (0.36233 0.69662 0)
# Probe 345 (0.49143 0.33798 0)
# Probe 346 (0.28605 0.22278 0)
# Probe 347 (0.54599 0.23305 0)
# Probe 348 (0.57817 0.22588 0)
# Probe 349 (0.35193 0.33027 0)
# Probe 350 (0.24317 0.52253 0)
# Probe 351 (0.21679 0.23412 0)
# Probe 352 (0.43245 0.74558 0)
# Probe 353 (0.43577 0.71876 0)
# Probe 354 (0.15923 0.51654 0)
# Probe 355 (0.2169 0.68625 0)
# Probe 356 (0.7259 0.39604 0)
# Probe 357 (0.74567 0.41921 0)
# Probe 358 (0.75662 0.38897 0)
# Probe 359 (0.77788 0.41518 0)
# Probe 360 (0.78962 0.38306 0)
# Probe 361 (0.24815 0.46242 0)
# Probe 362 (0.5548 0.20191 0)
# Probe 363 (0.58951 0.19484 0)
# Probe 364 (0.76704 0.35675 0)
# Probe 365 (0.80158 0.35009 0)
# Probe 366 (0.77686 0.32261 0)
# Probe 367 (0.19203 0.66805 0)
# Probe 368 (0.18836 0.70096 0)
# Probe 369 (0.5036 0.35249 0)
# Probe 370 (0.18448 0.43766 0)
# Probe 371 (0.75219 0.59267 0)
# Probe 372 (0.76547 0.56482 0)
# Probe 373 (0.78393 0.59187 0)
# Probe 374 (0.79814 0.56057 0)
# Probe 375 (0.30836 0.39208 0)
# Probe 376 (0.30323 0.41212 0)
# Probe 377 (0.22633 0.19774 0)
# Probe 378 (0.40544 0.78928 0)
# Probe 379 (0.37696 0.80203 0)
# Probe 380 (0.81809 0.58875 0)
# Probe 381 (0.45626 0.73381 0)
# Probe 382 (0.45748 0.7086 0)
# Probe 383 (0.43917 0.69513 0)
# Probe 384 (0.45835 0.68319 0)
# Probe 385 (0.4769 0.69785 0)
# Probe 386 (0.47846 0.67658 0)
# Probe 387 (0.49533 0.68802 0)
# Probe 388 (0.49557 0.66534 0)
# Probe 389 (0.81361 0.31603 0)
# Probe 390 (0.78789 0.28696 0)
# Probe 391 (0.80265 0.62043 0)
# Probe 392 (0.40334 0.82123 0)
# Probe 393 (0.3717 0.83533 0)
# Probe 394 (0.83828 0.61839 0)
# Probe 395 (0.8224 0.65183 0)
# Probe 396 (0.83291 0.55664 0)
# Probe 397 (0.48522 0.35681 0)
# Probe 398 (0.81205 0.40949 0)
# Probe 399 (0.59923 0.68446 0)
# Probe 400 (0.51283 0.67829 0)
# Probe 401 (0.51394 0.659 0)
# Probe 402 (0.20757 0.26975 0)
# Probe 403 (0.18107 0.24375 0)
# Probe 404 (0.17202 0.28066 0)
# Probe 405 (0.8266 0.28001 0)
# Probe 406 (0.80089 0.25039 0)
# Probe 407 (0.76173 0.25812 0)
# Probe 408 (0.77433 0.22121 0)
# Probe 409 (0.73652 0.23121 0)
# Probe 410 (0.74283 0.1963 0)
# Probe 411 (0.81571 0.20881 0)
# Probe 412 (0.44015 0.6738 0)
# Probe 413 (0.8376 0.34084 0)
# Probe 414 (0.16059 0.67942 0)
# Probe 415 (0.15642 0.71458 0)
# Probe 416 (0.18528 0.73512 0)
# Probe 417 (0.4948 0.70971 0)
# Probe 418 (0.79942 0.44278 0)
# Probe 419 (0.56672 0.16917 0)
# Probe 420 (0.5307 0.17664 0)
# Probe 421 (0.60163 0.16154 0)
# Probe 422 (0.45539 0.76064 0)
# Probe 423 (0.53016 0.66955 0)
# Probe 424 (0.53052 0.65073 0)
# Probe 425 (0.15197 0.75076 0)
# Probe 426 (0.18321 0.77286 0)
# Probe 427 (0.49779 0.36975 0)
# Probe 428 (0.51456 0.36656 0)
# Probe 429 (0.83498 0.43576 0)
# Probe 430 (0.52984 0.68987 0)
# Probe 431 (0.62349 0.18856 0)
# Probe 432 (0.32232 0.40665 0)
# Probe 433 (0.32773 0.38823 0)
# Probe 434 (0.63762 0.15421 0)
# Probe 435 (0.42312 0.68214 0)
# Probe 436 (0.42595 0.66295 0)
# Probe 437 (0.47857 0.6576 0)
# Probe 438 (0.32015 0.42574 0)
# Probe 439 (0.51531 0.64136 0)
# Probe 440 (0.53088 0.63315 0)
# Probe 441 (0.54624 0.64184 0)
# Probe 442 (0.54655 0.62151 0)
# Probe 443 (0.56172 0.63275 0)
# Probe 444 (0.56207 0.6152 0)
# Probe 445 (0.57785 0.62567 0)
# Probe 446 (0.57746 0.60618 0)
# Probe 447 (0.40886 0.66967 0)
# Probe 448 (0.473 0.34294 0)
# Probe 449 (0.46892 0.36261 0)
# Probe 450 (0.61328 0.12538 0)
# Probe 451 (0.5634 0.59773 0)
# Probe 452 (0.57726 0.58896 0)
# Probe 453 (0.59271 0.59732 0)
# Probe 454 (0.59203 0.57934 0)
# Probe 455 (0.60822 0.58764 0)
# Probe 456 (0.60747 0.56904 0)
# Probe 457 (0.58857 0.56135 0)
# Probe 458 (0.60589 0.55063 0)
# Probe 459 (0.5899 0.54302 0)
# Probe 460 (0.6045 0.53336 0)
# Probe 461 (0.58686 0.5256 0)
# Probe 462 (0.60295 0.51642 0)
# Probe 463 (0.5882 0.50897 0)
# Probe 464 (0.60224 0.49972 0)
# Probe 465 (0.58594 0.49174 0)
# Probe 466 (0.60112 0.48285 0)
# Probe 467 (0.58511 0.47531 0)
# Probe 468 (0.61914 0.52262 0)
# Probe 469 (0.61358 0.49104 0)
# Probe 470 (0.60022 0.46592 0)
# Probe 471 (0.58447 0.45774 0)
# Probe 472 (0.62455 0.57763 0)
# Probe 473 (0.8602 0.64907 0)
# Probe 474 (0.84365 0.68332 0)
# Probe 475 (0.80532 0.68591 0)
# Probe 476 (0.82648 0.7178 0)
# Probe 477 (0.29993 0.43086 0)
# Probe 478 (0.78845 0.71943 0)
# Probe 479 (0.80989 0.75205 0)
# Probe 480 (0.84832 0.75105 0)
# Probe 481 (0.83022 0.78663 0)
# Probe 482 (0.79112 0.78794 0)
# Probe 483 (0.81092 0.82343 0)
# Probe 484 (0.77188 0.82637 0)
# Probe 485 (0.14793 0.78839 0)
# Probe 486 (0.17977 0.81133 0)
# Probe 487 (0.21533 0.79487 0)
# Probe 488 (0.21221 0.83367 0)
# Probe 489 (0.24634 0.81652 0)
# Probe 490 (0.14321 0.82844 0)
# Probe 491 (0.59659 0.87578 0)
# Probe 492 (0.72412 0.26596 0)
# Probe 493 (0.59939 0.44843 0)
# Probe 494 (0.58364 0.44095 0)
# Probe 495 (0.61501 0.45714 0)
# Probe 496 (0.45589 0.34812 0)
# Probe 497 (0.45154 0.36438 0)
# Probe 498 (0.42433 0.40265 0)
# Probe 499 (0.43954 0.35228 0)
# Probe 500 (0.43531 0.36782 0)
# Probe 501 (0.42379 0.35614 0)
# Probe 502 (0.31343 0.44244 0)
# Probe 503 (0.67713 0.75542 0)
# Probe 504 (0.50861 0.38262 0)
# Probe 505 (0.5252 0.38062 0)
# Probe 506 (0.5314 0.36455 0)
# Probe 507 (0.54202 0.37843 0)
# Probe 508 (0.53552 0.39441 0)
# Probe 509 (0.55231 0.39242 0)
# Probe 510 (0.54527 0.40674 0)
# Probe 511 (0.41917 0.3718 0)
# Probe 512 (0.40799 0.36001 0)
# Probe 513 (0.44025 0.65649 0)
# Probe 514 (0.40317 0.37556 0)
# Probe 515 (0.39223 0.36403 0)
# Probe 516 (0.38878 0.37931 0)
# Probe 517 (0.34056 0.40213 0)
# Probe 518 (0.34627 0.38532 0)
# Probe 519 (0.57569 0.55017 0)
# Probe 520 (0.40039 0.85522 0)
# Probe 521 (0.3675 0.87055 0)
# Probe 522 (0.14471 0.25406 0)
# Probe 523 (0.15366 0.21565 0)
# Probe 524 (0.13599 0.29186 0)
# Probe 525 (0.46151 0.37649 0)
# Probe 526 (0.3379 0.84909 0)
# Probe 527 (0.41311 0.65012 0)
# Probe 528 (0.39505 0.65812 0)
# Probe 529 (0.56148 0.40507 0)
# Probe 530 (0.59872 0.43123 0)
# Probe 531 (0.56267 0.58148 0)
# Probe 532 (0.39801 0.64144 0)
# Probe 533 (0.38215 0.64754 0)
# Probe 534 (0.24477 0.85551 0)
# Probe 535 (0.29646 0.44796 0)
# Probe 536 (0.30914 0.45919 0)
# Probe 537 (0.29292 0.46468 0)
# Probe 538 (0.3053 0.47571 0)
# Probe 539 (0.28936 0.48117 0)
# Probe 540 (0.30193 0.49167 0)
# Probe 541 (0.28592 0.49765 0)
# Probe 542 (0.30042 0.50868 0)
# Probe 543 (0.52917 0.6162 0)
# Probe 544 (0.54254 0.14299 0)
# Probe 545 (0.50683 0.14989 0)
# Probe 546 (0.56954 0.44993 0)
# Probe 547 (0.69984 0.24022 0)
# Probe 548 (0.81635 0.528 0)
# Probe 549 (0.85023 0.52301 0)
# Probe 550 (0.60882 0.60656 0)
# Probe 551 (0.39702 0.34921 0)
# Probe 552 (0.56175 0.65135 0)
# Probe 553 (0.8513 0.82579 0)
# Probe 554 (0.12721 0.69324 0)
# Probe 555 (0.13232 0.65612 0)
# Probe 556 (0.22874 0.34295 0)
# Probe 557 (0.70927 0.75355 0)
# Probe 558 (0.69376 0.7841 0)
# Probe 559 (0.28242 0.5143 0)
# Probe 560 (0.29511 0.52581 0)
# Probe 561 (0.27838 0.53128 0)
# Probe 562 (0.29158 0.54338 0)
# Probe 563 (0.37461 0.3703 0)
# Probe 564 (0.35717 0.39874 0)
# Probe 565 (0.52922 0.40881 0)
# Probe 566 (0.27426 0.55046 0)
# Probe 567 (0.2883 0.56124 0)
# Probe 568 (0.30463 0.55457 0)
# Probe 569 (0.30425 0.57097 0)
# Probe 570 (0.28623 0.57808 0)
# Probe 571 (0.30038 0.58952 0)
# Probe 572 (0.3164 0.58346 0)
# Probe 573 (0.31469 0.60176 0)
# Probe 574 (0.2981 0.60862 0)
# Probe 575 (0.31247 0.62039 0)
# Probe 576 (0.32954 0.61284 0)
# Probe 577 (0.45818 0.32978 0)
# Probe 578 (0.79186 0.86141 0)
# Probe 579 (0.75106 0.86403 0)
# Probe 580 (0.56982 0.39022 0)
# Probe 581 (0.09843 0.67056 0)
# Probe 582 (0.33331 0.88695 0)
# Probe 583 (0.5334 0.33068 0)
# Probe 584 (0.27808 0.43643 0)
# Probe 585 (0.87067 0.55347 0)
# Probe 586 (0.88665 0.51724 0)
# Probe 587 (0.32788 0.6307 0)
# Probe 588 (0.3436 0.62237 0)
# Probe 589 (0.34338 0.64201 0)
# Probe 590 (0.3858 0.63177 0)
# Probe 591 (0.57399 0.50234 0)
# Probe 592 (0.49358 0.38477 0)
# Probe 593 (0.33451 0.37102 0)
# Probe 594 (0.47782 0.74785 0)
# Probe 595 (0.4784 0.77539 0)
# Probe 596 (0.49572 0.18501 0)
# Probe 597 (0.47017 0.15916 0)
# Probe 598 (0.48258 0.11978 0)
# Probe 599 (0.44482 0.13222 0)
# Probe 600 (0.43387 0.16846 0)
# Probe 601 (0.40888 0.14235 0)
# Probe 602 (0.39901 0.17763 0)
# Probe 603 (0.3736 0.15212 0)
# Probe 604 (0.36455 0.18746 0)
# Probe 605 (0.33776 0.16183 0)
# Probe 606 (0.34726 0.12527 0)
# Probe 607 (0.30966 0.13563 0)
# Probe 608 (0.54924 0.59207 0)
# Probe 609 (0.4048 0.68803 0)
# Probe 610 (0.54002 0.42171 0)
# Probe 611 (0.20842 0.87393 0)
# Probe 612 (0.11588 0.22799 0)
# Probe 613 (0.12478 0.18608 0)
# Probe 614 (0.10296 0.63203 0)
# Probe 615 (0.11713 0.77025 0)
# Probe 616 (0.88306 0.68064 0)
# Probe 617 (0.90051 0.64604 0)
# Probe 618 (0.14411 0.61733 0)
# Probe 619 (0.74132 0.32822 0)
# Probe 620 (0.10984 0.59339 0)
# Probe 621 (0.34548 0.60715 0)
# Probe 622 (0.35849 0.61493 0)
# Probe 623 (0.16392 0.17717 0)
# Probe 624 (0.13575 0.14461 0)
# Probe 625 (0.17771 0.13343 0)
# Probe 626 (0.43229 0.83956 0)
# Probe 627 (0.43065 0.87905 0)
# Probe 628 (0.54853 0.36097 0)
# Probe 629 (0.65177 0.11819 0)
# Probe 630 (0.6768 0.14833 0)
# Probe 631 (0.69205 0.11099 0)
# Probe 632 (0.16377 0.31809 0)
# Probe 633 (0.12719 0.33067 0)
# Probe 634 (0.50628 0.75957 0)
# Probe 635 (0.50109 0.793 0)
# Probe 636 (0.33001 0.43982 0)
# Probe 637 (0.24885 0.77948 0)
# Probe 638 (0.28335 0.79845 0)
# Probe 639 (0.54836 0.67963 0)
# Probe 640 (0.54902 0.70037 0)
# Probe 641 (0.36853 0.9074 0)
# Probe 642 (0.72321 0.72393 0)
# Probe 643 (0.37901 0.66442 0)
# Probe 644 (0.77116 0.89929 0)
# Probe 645 (0.68979 0.27399 0)
# Probe 646 (0.66261 0.2491 0)
# Probe 647 (0.84836 0.40303 0)
# Probe 648 (0.87342 0.4326 0)
# Probe 649 (0.88527 0.39806 0)
# Probe 650 (0.62518 0.08767 0)
# Probe 651 (0.5854 0.09772 0)
# Probe 652 (0.50236 0.39558 0)
# Probe 653 (0.47688 0.8015 0)
# Probe 654 (0.77038 0.68892 0)
# Probe 655 (0.29661 0.62982 0)
# Probe 656 (0.72866 0.90064 0)
# Probe 657 (0.70785 0.86119 0)
# Probe 658 (0.30901 0.52229 0)
# Probe 659 (0.56841 0.43433 0)
# Probe 660 (0.55595 0.44343 0)
# Probe 661 (0.54923 0.57446 0)
# Probe 662 (0.4307 0.38181 0)
# Probe 663 (0.58067 0.40568 0)
# Probe 664 (0.58957 0.38778 0)
# Probe 665 (0.31983 0.09791 0)
# Probe 666 (0.28091 0.10924 0)
# Probe 667 (0.35851 0.08663 0)
# Probe 668 (0.2718 0.14706 0)
# Probe 669 (0.52921 0.71143 0)
# Probe 670 (0.35323 0.41481 0)
# Probe 671 (0.67971 0.21347 0)
# Probe 672 (0.28079 0.7625 0)
# Probe 673 (0.55745 0.45796 0)
# Probe 674 (0.82571 0.47015 0)
# Probe 675 (0.78707 0.4733 0)
# Probe 676 (0.26896 0.5027 0)
# Probe 677 (0.41002 0.63629 0)
# Probe 678 (0.38961 0.20973 0)
# Probe 679 (0.37082 0.63776 0)
# Probe 680 (0.60213 0.40214 0)
# Probe 681 (0.24147 0.11884 0)
# Probe 682 (0.23734 0.90036 0)
# Probe 683 (0.73974 0.75256 0)
# Probe 684 (0.42749 0.34053 0)
# Probe 685 (0.41867 0.10493 0)
# Probe 686 (0.14702 0.10184 0)
# Probe 687 (0.10296 0.11331 0)
# Probe 688 (0.30397 0.86322 0)
# Probe 689 (0.36506 0.40874 0)
# Probe 690 (0.37263 0.39836 0)
# Probe 691 (0.1056 0.3061 0)
# Probe 692 (0.08321 0.33983 0)
# Probe 693 (0.11834 0.36941 0)
# Probe 694 (0.71815 0.14042 0)
# Probe 695 (0.73368 0.10274 0)
# Probe 696 (0.76081 0.1337 0)
# Probe 697 (0.77534 0.09237 0)
# Probe 698 (0.80478 0.12957 0)
# Probe 699 (0.11468 0.06845 0)
# Probe 700 (0.36008 0.6006 0)
# Probe 701 (0.06984 0.64964 0)
# Probe 702 (0.563 0.56834 0)
# Probe 703 (0.39859 0.389 0)
# Probe 704 (0.33169 0.92622 0)
# Probe 705 (0.33059 0.19549 0)
# Probe 706 (0.46427 0.66357 0)
# Probe 707 (0.46632 0.64745 0)
# Probe 708 (0.47842 0.64149 0)
# Probe 709 (0.46715 0.63281 0)
# Probe 710 (0.45446 0.63919 0)
# Probe 711 (0.50074 0.64702 0)
# Probe 712 (0.50264 0.6316 0)
# Probe 713 (0.31954 0.46894 0)
# Probe 714 (0.31732 0.48554 0)
# Probe 715 (0.31301 0.5008 0)
# Probe 716 (0.55049 0.72167 0)
# Probe 717 (0.32548 0.45277 0)
# Probe 718 (0.68213 0.90813 0)
# Probe 719 (0.66411 0.87041 0)
# Probe 720 (0.63758 0.89748 0)
# Probe 721 (0.81645 0.89224 0)
# Probe 722 (0.42905 0.64568 0)
# Probe 723 (0.42957 0.63059 0)
# Probe 724 (0.14558 0.57945 0)
# Probe 725 (0.11664 0.55796 0)
# Probe 726 (0.33319 0.05617 0)
# Probe 727 (0.07958 0.38846 0)
# Probe 728 (0.11238 0.40921 0)
# Probe 729 (0.14445 0.39646 0)
# Probe 730 (0.4148 0.38639 0)
# Probe 731 (0.48085 0.62863 0)
# Probe 732 (0.14002 0.43264 0)
# Probe 733 (0.10675 0.44629 0)
# Probe 734 (0.13399 0.46953 0)
# Probe 735 (0.10028 0.48318 0)
# Probe 736 (0.52663 0.73451 0)
# Probe 737 (0.44674 0.38083 0)
# Probe 738 (0.45856 0.38995 0)
# Probe 739 (0.47009 0.38736 0)
# Probe 740 (0.48333 0.3729 0)
# Probe 741 (0.5159 0.62508 0)
# Probe 742 (0.50422 0.61848 0)
# Probe 743 (0.51579 0.61166 0)
# Probe 744 (0.52628 0.60353 0)
# Probe 745 (0.54019 0.6055 0)
# Probe 746 (0.40055 0.62634 0)
# Probe 747 (0.38929 0.61769 0)
# Probe 748 (0.92578 0.6801 0)
# Probe 749 (0.90681 0.71815 0)
# Probe 750 (0.92271 0.75956 0)
# Probe 751 (0.71143 0.30403 0)
# Probe 752 (0.67776 0.30601 0)
# Probe 753 (0.48754 0.39849 0)
# Probe 754 (0.6607 0.78501 0)
# Probe 755 (0.67828 0.81579 0)
# Probe 756 (0.71277 0.81519 0)
# Probe 757 (0.94524 0.64379 0)
# Probe 758 (0.33341 0.59552 0)
# Probe 759 (0.33304 0.57941 0)
# Probe 760 (0.32148 0.56794 0)
# Probe 761 (0.32116 0.55135 0)
# Probe 762 (0.34521 0.5874 0)
# Probe 763 (0.3748 0.62099 0)
# Probe 764 (0.74819 0.06112 0)
# Probe 765 (0.75072 0.93515 0)
# Probe 766 (0.35332 0.36753 0)
# Probe 767 (0.57049 0.46539 0)
# Probe 768 (0.55897 0.47143 0)
# Probe 769 (0.5705 0.47837 0)
# Probe 770 (0.33694 0.41821 0)
# Probe 771 (0.348 0.42829 0)
# Probe 772 (0.51768 0.39661 0)
# Probe 773 (0.51592 0.41042 0)
# Probe 774 (0.52346 0.42281 0)
# Probe 775 (0.57147 0.95758 0)
# Probe 776 (0.62324 0.96128 0)
# Probe 777 (0.34435 0.57561 0)
# Probe 778 (0.23663 0.54651 0)
# Probe 779 (0.24863 0.4876 0)
# Probe 780 (0.30858 0.53761 0)
# Probe 781 (0.32336 0.53593 0)
# Probe 782 (0.57489 0.53634 0)
# Probe 783 (0.56391 0.54135 0)
# Probe 784 (0.56237 0.52957 0)
# Probe 785 (0.57348 0.51543 0)
# Probe 786 (0.56085 0.50902 0)
# Probe 787 (0.56096 0.49677 0)
# Probe 788 (0.65957 0.43245 0)
# Probe 789 (0.64866 0.45674 0)
# Probe 790 (0.63557 0.43479 0)
# Probe 791 (0.66695 0.47824 0)
# Probe 792 (0.65535 0.50096 0)
# Probe 793 (0.64696 0.47863 0)
# Probe 794 (0.67454 0.52431 0)
# Probe 795 (0.66442 0.54725 0)
# Probe 796 (0.65089 0.52625 0)
# Probe 797 (0.64007 0.54834 0)
# Probe 798 (0.65403 0.5683 0)
# Probe 799 (0.63474 0.51339 0)
# Probe 800 (0.33786 0.6834 0)
# Probe 801 (0.09205 0.70921 0)
# Probe 802 (0.47947 0.29976 0)
# Probe 803 (0.45919 0.31002 0)
# Probe 804 (0.44871 0.91903 0)
# Probe 805 (0.3833 0.71474 0)
# Probe 806 (0.62503 0.39567 0)
# Probe 807 (0.528 0.77768 0)
# Probe 808 (0.55463 0.42894 0)
# Probe 809 (0.25896 0.53893 0)
# Probe 810 (0.25392 0.43844 0)
# Probe 811 (0.26436 0.41223 0)
# Probe 812 (0.91746 0.55079 0)
# Probe 813 (0.92934 0.50879 0)
# Probe 814 (0.89284 0.58301 0)
# Probe 815 (0.89487 0.47149 0)
# Probe 816 (0.32743 0.33715 0)
# Probe 817 (0.67848 0.5715 0)
# Probe 818 (0.66267 0.58939 0)
# Probe 819 (0.1282 0.50365 0)
# Probe 820 (0.09359 0.52325 0)
# Probe 821 (0.06831 0.49387 0)
# Probe 822 (0.03806 0.32187 0)
# Probe 823 (0.57276 0.68658 0)
# Probe 824 (0.58278 0.66261 0)
# Probe 825 (0.60932 0.66169 0)
# Probe 826 (0.59558 0.64 0)
# Probe 827 (0.6188 0.64071 0)
# Probe 828 (0.4673 0.39843 0)
# Probe 829 (0.3389 0.44794 0)
# Probe 830 (0.59611 0.0567 0)
# Probe 831 (0.37623 0.32228 0)
# Probe 832 (0.39994 0.31631 0)
# Probe 833 (0.27711 0.46917 0)
# Probe 834 (0.3686 0.34109 0)
# Probe 835 (0.42263 0.19989 0)
# Probe 836 (0.45959 0.19634 0)
# Probe 837 (0.33091 0.54473 0)
# Probe 838 (0.46614 0.61457 0)
# Probe 839 (0.48599 0.60757 0)
# Probe 840 (0.22047 0.75346 0)
# Probe 841 (0.37419 0.95471 0)
# Probe 842 (0.54429 0.45259 0)
# Probe 843 (0.54328 0.43763 0)
# Probe 844 (0.53356 0.44613 0)
# Probe 845 (0.35766 0.22312 0)
# Probe 846 (0.32175 0.23026 0)
# Probe 847 (0.51256 0.59025 0)
# Probe 848 (0.49549 0.60258 0)
# Probe 849 (0.54591 0.48403 0)
# Probe 850 (0.48781 0.8767 0)
# Probe 851 (0.15887 0.36101 0)
# Probe 852 (0.52023 0.58274 0)
# Probe 853 (0.53058 0.58441 0)
# Probe 854 (0.53295 0.5659 0)
# Probe 855 (0.54204 0.54651 0)
# Probe 856 (0.54877 0.55506 0)
# Probe 857 (0.36341 0.38417 0)
# Probe 858 (0.47546 0.0417 0)
# Probe 859 (0.74832 0.29404 0)
# Probe 860 (0.54174 0.47364 0)
# Probe 861 (0.57194 0.33042 0)
# Probe 862 (0.54909 0.31283 0)
# Probe 863 (0.51291 0.4292 0)
# Probe 864 (0.50415 0.42291 0)
# Probe 865 (0.29671 0.65375 0)
# Probe 866 (0.48634 0.41203 0)
# Probe 867 (0.43483 0.40165 0)
# Probe 868 (0.45624 0.40235 0)
# Probe 869 (0.57602 0.57368 0)
# Probe 870 (0.60074 0.36808 0)
# Probe 871 (0.45584 0.61699 0)
# Probe 872 (0.78715 0.65528 0)
# Probe 873 (0.54723 0.52551 0)
# Probe 874 (0.54945 0.50459 0)
# Probe 875 (0.25641 0.56385 0)
# Probe 876 (0.25175 0.59007 0)
# Probe 877 (0.2682 0.60035 0)
# Probe 878 (0.41384 0.40504 0)
# Probe 879 (0.36653 0.58982 0)
# Probe 880 (0.37439 0.59702 0)
# Probe 881 (0.35814 0.43633 0)
# Probe 882 (0.33155 0.5154 0)
# Probe 883 (0.3354 0.48367 0)
# Probe 884 (0.34188 0.46397 0)
# Probe 885 (0.43924 0.39218 0)
# Probe 886 (0.37692 0.04405 0)
# Probe 887 (0.94314 0.46284 0)
# Probe 888 (0.40235 0.61362 0)
# Probe 889 (0.42413 0.61782 0)
# Probe 890 (0.78194 0.17373 0)
# Probe 891 (0.8311 0.1667 0)
# Probe 892 (0.85835 0.20307 0)
# Probe 893 (0.84975 0.12451 0)
# Probe 894 (0.8761 0.16133 0)
# Probe 895 (0.89676 0.12139 0)
# Probe 896 (0.9019 0.19479 0)
# Probe 897 (0.88693 0.23475 0)
# Probe 898 (0.86386 0.08227 0)
# Probe 899 (0.40992 0.91534 0)
# Probe 900 (0.04169 0.77402 0)
# Probe 901 (0.70436 0.179 0)
# Probe 902 (0.3319 0.50472 0)
# Probe 903 (0.04085 0.22447 0)
# Probe 904 (0.43487 0.61902 0)
# Probe 905 (0.44 0.62796 0)
# Probe 906 (0.37587 0.42329 0)
# Probe 907 (0.39366 0.41199 0)
# Probe 908 (0.3846 0.40574 0)
# Probe 909 (0.57466 0.72794 0)
# Probe 910 (0.49994 0.08115 0)
# Probe 911 (0.23105 0.95162 0)
# Probe 912 (0.22475 0.03977 0)
# Probe 913 (0.19719 0.08894 0)
# Probe 914 (0.08029 0.79478 0)
# Probe 915 (0.09177 0.84138 0)
# Probe 916 (0.04433 0.87178 0)
# Probe 917 (0.08754 0.89428 0)
# Probe 918 (0.08247 0.95084 0)
# Probe 919 (0.12821 0.91616 0)
# Probe 920 (0.41424 0.23044 0)
# Probe 921 (0.48836 0.21078 0)
# Probe 922 (0.51652 0.21159 0)
# Probe 923 (0.95858 0.23287 0)
# Probe 924 (0.1971 0.30487 0)
# Probe 925 (0.19522 0.34256 0)
# Probe 926 (0.23208 0.29532 0)
# Probe 927 (0.45426 0.08424 0)
# Probe 928 (0.19994 0.91665 0)
# Probe 929 (0.21606 0.71694 0)
# Probe 930 (0.5247 0.8144 0)
# Probe 931 (0.95889 0.37256 0)
# Probe 932 (0.95788 0.32544 0)
# Probe 933 (0.91807 0.30267 0)
# Probe 934 (0.92134 0.34677 0)
# Probe 935 (0.87958 0.33073 0)
# Probe 936 (0.76565 0.44686 0)
# Probe 937 (0.5779 0.37121 0)
# Probe 938 (0.63296 0.65995 0)
# Probe 939 (0.61605 0.41881 0)
# Probe 940 (0.7699 0.62317 0)
# Probe 941 (0.33834 0.66191 0)
# Probe 942 (0.35803 0.67149 0)
# Probe 943 (0.3082 0.82559 0)
# Probe 944 (0.05146 0.1215 0)
# Probe 945 (0.16739 0.64671 0)
# Probe 946 (0.95711 0.8745 0)
# Probe 947 (0.91784 0.85072 0)
# Probe 948 (0.9169 0.89986 0)
# Probe 949 (0.86701 0.87508 0)
# Probe 950 (0.88091 0.92344 0)
# Probe 951 (0.94787 0.12406 0)
# Probe 952 (0.34417 0.81489 0)
# Probe 953 (0.2678 0.63608 0)
# Probe 954 (0.16721 0.89219 0)
# Probe 955 (0.58179 0.42399 0)
# Probe 956 (0.54867 0.07711 0)
# Probe 957 (0.73466 0.36285 0)
# Probe 958 (0.1308 0.87068 0)
# Probe 959 (0.7778 0.5335 0)
# Probe 960 (0.15098 0.54779 0)
# Probe 961 (0.17436 0.5945 0)
# Probe 962 (0.37117 0.60812 0)
# Probe 963 (0.3362 0.56688 0)
# Probe 964 (0.08311 0.20152 0)
# Probe 965 (0.61057 0.2204 0)
# Probe 966 (0.23611 0.15967 0)
# Probe 967 (0.4313 0.80622 0)
# Probe 968 (0.86068 0.48684 0)
# Probe 969 (0.62234 0.55896 0)
# Probe 970 (0.30306 0.17068 0)