# Probe 0 (0 0 0)
# Probe 1 (1 0 0)
# Probe 2 (1 1 0)
# Probe 3 (0 1 0)
# Probe 4 (0.73 0.66 0)
# Probe 5 (0.63 0.56 0)
# Probe 6 (0.53 0.66 0)
# Probe 7 (0.63 0.76 0)
# Probe 8 (0.05 0 0)
# Probe 9 (0.1 0 0)
# Probe 10 (0.15 0 0)
# Probe 11 (0.2 0 0)
# Probe 12 (0.25 0 0)
# Probe 13 (0.3 0 0)
# Probe 14 (0.35 0 0)
# Probe 15 (0.4 0 0)
# Probe 16 (0.45 0 0)
# Probe 17 (0.5 0 0)
# Probe 18 (0.55 0 0)
# Probe 19 (0.6 0 0)
# Probe 20 (0.65 0 0)
# Probe 21 (0.7 0 0)
# Probe 22 (0.75 0 0)
# Probe 23 (0.8 0 0)
# Probe 24 (0.85 0 0)
# Probe 25 (0.9 0 0)
# Probe 26 (0.95 0 0)
# Probe 27 (1 0.05 0)
# Probe 28 (1 0.1 0)
# Probe 29 (1 0.15 0)
# Probe 30 (1 0.2 0)
# Probe 31 (1 0.25 0)
# Probe 32 (1 0.3 0)
# Probe 33 (1 0.35 0)
# Probe 34 (1 0.4 0)
# Probe 35 (1 0.45 0)
# Probe 36 (1 0.5 0)
# Probe 37 (1 0.55 0)
# Probe 38 (1 0.6 0)
# Probe 39 (1 0.65 0)
# Probe 40 (1 0.7 0)
# Probe 41 (1 0.75 0)
# Probe 42 (1 0.8 0)
# Probe 43 (1 0.85 0)
# Probe 44 (1 0.9 0)
# Probe 45 (1 0.95 0)
# Probe 46 (0.95 1 0)
# Probe 47 (0.9 1 0)
# Probe 48 (0.85 1 0)
# Probe 49 (0.8 1 0)
# Probe 50 (0.75 1 0)
# Probe 51 (0.7 1 0)
# Probe 52 (0.65 1 0)
# Probe 53 (0.6 1 0)
# Probe 54 (0.55 1 0)
# Probe 55 (0.5 1 0)
# Probe 56 (0.45 1 0)
# Probe 57 (0.4 1 0)
# Probe 58 (0.35 1 0)
# Probe 59 (0.3 1 0)
# Probe 60 (0.25 1 0)
# Probe 61 (0.2 1 0)
# Probe 62 (0.15 1 0)
# Probe 63 (0.1 1 0)
# Probe 64 (0.05 1 0)
# Probe 65 (0 0.95 0)
# Probe 66 (0 0.9 0)
# Probe 67 (0 0.85 0)
# Probe 68 (0 0.8 0)
# Probe 69 (0 0.75 0)
# Probe 70 (0 0.7 0)
# Probe 71 (0 0.65 0)
# Probe 72 (0 0.6 0)
# Probe 73 (0 0.55 0)
# Probe 74 (0 0.5 0)
# Probe 75 (0 0.45 0)
# Probe 76 (0 0.4 0)
# Probe 77 (0 0.35 0)
# Probe 78 (0 0.3 0)
# Probe 79 (0 0.25 0)
# Probe 80 (0 0.2 0)
# Probe 81 (0 0.15 0)
# Probe 82 (0 0.1 0)
# Probe 83 (0 0.05 0)
# Probe 84 (0.72952 0.6502 0)
# Probe 85 (0.72808 0.64049 0)
# Probe 86 (0.72569 0.63097 0)
# Probe 87 (0.72239 0.62173 0)
# Probe 88 (0.71819 0.61286 0)
# Probe 89 (0.71315 0.60444 0)
# Probe 90 (0.7073 0.59656 0)
# Probe 91 (0.70071 0.58929 0)
# Probe 92 (0.69344 0.5827 0)
# Probe 93 (0.68556 0.57685 0)
# Probe 94 (0.67714 0.57181 0)
# Probe 95 (0.66827 0.56761 0)
# Probe 96 (0.65903 0.56431 0)
# Probe 97 (0.64951 0.56192 0)
# Probe 98 (0.6398 0.56048 0)
# Probe 99 (0.6202 0.56048 0)
# Probe 100 (0.61049 0.56192 0)
# Probe 101 (0.60097 0.56431 0)
# Probe 102 (0.59173 0.56761 0)
# Probe 103 (0.58286 0.57181 0)
# Probe 104 (0.57444 0.57685 0)
# Probe 105 (0.56656 0.5827 0)
# Probe 106 (0.55929 0.58929 0)
# Probe 107 (0.5527 0.59656 0)
# Probe 108 (0.54685 0.60444 0)
# Probe 109 (0.54181 0.61286 0)
# Probe 110 (0.53761 0.62173 0)
# Probe 111 (0.53431 0.63097 0)
# Probe 112 (0.53192 0.64049 0)
# Probe 113 (0.53048 0.6502 0)
# Probe 114 (0.53048 0.6698 0)
# Probe 115 (0.53192 0.67951 0)
# Probe 116 (0.53431 0.68903 0)
# Probe 117 (0.53761 0.69827 0)
# Probe 118 (0.54181 0.70714 0)
# Probe 119 (0.54685 0.71556 0)
# Probe 120 (0.5527 0.72344 0)
# Probe 121 (0.55929 0.73071 0)
# Probe 122 (0.56656 0.7373 0)
# Probe 123 (0.57444 0.74315 0)
# Probe 124 (0.58286 0.74819 0)
# Probe 125 (0.59173 0.75239 0)
# Probe 126 (0.60097 0.75569 0)
# Probe 127 (0.61049 0.75808 0)
# Probe 128 (0.6202 0.75952 0)
# Probe 129 (0.6398 0.75952 0)
# Probe 130 (0.64951 0.75808 0)
# Probe 131 (0.65903 0.75569 0)
# Probe 132 (0.66827 0.75239 0)
# Probe 133 (0.67714 0.74819 0)
# Probe 134 (0.68556 0.74315 0)
# Probe 135 (0.69344 0.7373 0)
# Probe 136 (0.70071 0.73071 0)
# Probe 137 (0.7073 0.72344 0)
# Probe 138 (0.71315 0.71556 0)
# Probe 139 (0.71819 0.70714 0)
# Probe 140 (0.72239 0.69827 0)
# Probe 141 (0.72569 0.68903 0)
# Probe 142 (0.72808 0.67951 0)
# Probe 143 (0.72952 0.6698 0)
# Probe 144 (0.375 0.0433 0)
# Probe 145 (0.0411 0.37676 0)
# Probe 146 (0.57391 0.04261 0)
# Probe 147 (0.0422 0.5748 0)
# Probe 148 (0.04069 0.72214 0)
# Probe 149 (0.95854 0.32559 0)
# Probe 150 (0.32509 0.95227 0)
# Probe 151 (0.62468 0.76825 0)
# Probe 152 (0.7187 0.04032 0)
# Probe 153 (0.95309 0.47194 0)
# Probe 154 (0.0427 0.22661 0)
# Probe 155 (0.95811 0.82598 0)
# Probe 156 (0.47871 0.95417 0)
# Probe 157 (0.59349 0.76204 0)
# Probe 158 (0.7745 0.95786 0)
# Probe 159 (0.65622 0.76459 0)
# Probe 160 (0.9584 0.62814 0)
# Probe 161 (0.22392 0.04318 0)
# Probe 162 (0.16995 0.95677 0)
# Probe 163 (0.94999 0.1765 0)
# Probe 164 (0.57207 0.96061 0)
# Probe 165 (0.67317 0.95951 0)
# Probe 166 (0.95797 0.72274 0)
# Probe 167 (0.73733 0.6761 0)
# Probe 168 (0.73846 0.65488 0)
# Probe 169 (0.04809 0.47221 0)
# Probe 170 (0.04177 0.82387 0)
# Probe 171 (0.47683 0.04302 0)
# Probe 172 (0.8258 0.04134 0)
# Probe 173 (0.04327 0.12509 0)
# Probe 174 (0.87409 0.95778 0)
# Probe 175 (0.125 0.0433 0)
# Probe 176 (0.04788 0.92231 0)
# Probe 177 (0.92428 0.04583 0)
# Probe 178 (0.96245 0.92466 0)
# Probe 179 (0.62142 0.95547 0)
# Probe 180 (0.65093 0.92142 0)
# Probe 181 (0.69063 0.92159 0)
# Probe 182 (0.66957 0.88481 0)
# Probe 183 (0.6351 0.8889 0)
# Probe 184 (0.7038 0.88693 0)
# Probe 185 (0.7103 0.73278 0)
# Probe 186 (0.68572 0.75296 0)
# Probe 187 (0.72312 0.71543 0)
# Probe 188 (0.73217 0.69674 0)
# Probe 189 (0.68887 0.85933 0)
# Probe 190 (0.7166 0.85888 0)
# Probe 191 (0.69793 0.83293 0)
# Probe 192 (0.72655 0.8346 0)
# Probe 193 (0.67356 0.83762 0)
# Probe 194 (0.74431 0.85648 0)
# Probe 195 (0.75316 0.82753 0)
# Probe 196 (0.7738 0.85432 0)
# Probe 197 (0.78568 0.82591 0)
# Probe 198 (0.76837 0.8017 0)
# Probe 199 (0.79688 0.79859 0)
# Probe 200 (0.77834 0.77464 0)
# Probe 201 (0.80685 0.77232 0)
# Probe 202 (0.78937 0.74855 0)
# Probe 203 (0.81676 0.74706 0)
# Probe 204 (0.80144 0.7257 0)
# Probe 205 (0.82646 0.72297 0)
# Probe 206 (0.81093 0.70297 0)
# Probe 207 (0.83656 0.69904 0)
# Probe 208 (0.81809 0.67794 0)
# Probe 209 (0.81831 0.82077 0)
# Probe 210 (0.82975 0.76795 0)
# Probe 211 (0.84544 0.67421 0)
# Probe 212 (0.82929 0.65397 0)
# Probe 213 (0.85469 0.72064 0)
# Probe 214 (0.71115 0.81418 0)
# Probe 215 (0.80419 0.65769 0)
# Probe 216 (0.81367 0.63494 0)
# Probe 217 (0.73252 0.6247 0)
# Probe 218 (0.83854 0.62956 0)
# Probe 219 (0.81828 0.60973 0)
# Probe 220 (0.84712 0.60395 0)
# Probe 221 (0.82854 0.58462 0)
# Probe 222 (0.71718 0.59543 0)
# Probe 223 (0.8049 0.58803 0)
# Probe 224 (0.81127 0.56541 0)
# Probe 225 (0.83606 0.55927 0)
# Probe 226 (0.81763 0.5412 0)
# Probe 227 (0.79079 0.5501 0)
# Probe 228 (0.79921 0.52421 0)
# Probe 229 (0.69456 0.57295 0)
# Probe 230 (0.77632 0.53109 0)
# Probe 231 (0.78277 0.50853 0)
# Probe 232 (0.76096 0.51506 0)
# Probe 233 (0.76635 0.49266 0)
# Probe 234 (0.74254 0.50187 0)
# Probe 235 (0.74932 0.47656 0)
# Probe 236 (0.72734 0.48364 0)
# Probe 237 (0.7327 0.46039 0)
# Probe 238 (0.71084 0.46753 0)
# Probe 239 (0.71606 0.44533 0)
# Probe 240 (0.69493 0.45221 0)
# Probe 241 (0.6997 0.4296 0)
# Probe 242 (0.67803 0.43641 0)
# Probe 243 (0.68265 0.41345 0)
# Probe 244 (0.66002 0.42009 0)
# Probe 245 (0.66522 0.39645 0)
# Probe 246 (0.64191 0.40324 0)
# Probe 247 (0.6142 0.55344 0)
# Probe 248 (0.64735 0.37898 0)
# Probe 249 (0.6229 0.38591 0)
# Probe 250 (0.67047 0.37216 0)
# Probe 251 (0.62871 0.36052 0)
# Probe 252 (0.6032 0.36834 0)
# Probe 253 (0.5975 0.39441 0)
# Probe 254 (0.57842 0.3749 0)
# Probe 255 (0.57183 0.40153 0)
# Probe 256 (0.55325 0.383 0)
# Probe 257 (0.54766 0.40844 0)
# Probe 258 (0.52822 0.39163 0)
# Probe 259 (0.52215 0.4165 0)
# Probe 260 (0.50275 0.39959 0)
# Probe 261 (0.49636 0.42579 0)
# Probe 262 (0.47684 0.40774 0)
# Probe 263 (0.47139 0.43392 0)
# Probe 264 (0.45079 0.41611 0)
# Probe 265 (0.44546 0.44615 0)
# Probe 266 (0.5497 0.58722 0)
# Probe 267 (0.42282 0.42298 0)
# Probe 268 (0.41723 0.45304 0)
# Probe 269 (0.57438 0.56711 0)
# Probe 270 (0.42994 0.39611 0)
# Probe 271 (0.39477 0.43115 0)
# Probe 272 (0.38925 0.46266 0)
# Probe 273 (0.53231 0.36089 0)
# Probe 274 (0.61029 0.34159 0)
# Probe 275 (0.36735 0.44147 0)
# Probe 276 (0.36075 0.47143 0)
# Probe 277 (0.38288 0.49284 0)
# Probe 278 (0.35507 0.50125 0)
# Probe 279 (0.37664 0.52111 0)
# Probe 280 (0.53196 0.61389 0)
# Probe 281 (0.34958 0.52988 0)
# Probe 282 (0.37088 0.54856 0)
# Probe 283 (0.34404 0.55774 0)
# Probe 284 (0.36513 0.57611 0)
# Probe 285 (0.52243 0.64412 0)
# Probe 286 (0.33871 0.58536 0)
# Probe 287 (0.35946 0.60346 0)
# Probe 288 (0.33311 0.61271 0)
# Probe 289 (0.35858 0.63163 0)
# Probe 290 (0.32778 0.64019 0)
# Probe 291 (0.34878 0.65872 0)
# Probe 292 (0.53736 0.71555 0)
# Probe 293 (0.52391 0.68776 0)
# Probe 294 (0.32154 0.66635 0)
# Probe 295 (0.72156 0.42128 0)
# Probe 296 (0.77406 0.4684 0)
# Probe 297 (0.3424 0.68346 0)
# Probe 298 (0.31438 0.69466 0)
# Probe 299 (0.33698 0.45062 0)
# Probe 300 (0.3441 0.41939 0)
# Probe 301 (0.6459 0.55279 0)
# Probe 302 (0.32207 0.53903 0)
# Probe 303 (0.30611 0.62156 0)
# Probe 304 (0.39667 0.54014 0)
# Probe 305 (0.31259 0.42872 0)
# Probe 306 (0.32035 0.39498 0)
# Probe 307 (0.37548 0.65333 0)
# Probe 308 (0.34252 0.71337 0)
# Probe 309 (0.49572 0.45287 0)
# Probe 310 (0.30909 0.72636 0)
# Probe 311 (0.56665 0.42679 0)
# Probe 312 (0.28403 0.7037 0)
# Probe 313 (0.65652 0.44119 0)
# Probe 314 (0.59436 0.55945 0)
# Probe 315 (0.52193 0.66523 0)
# Probe 316 (0.27767 0.73788 0)
# Probe 317 (0.66663 0.55824 0)
# Probe 318 (0.28672 0.40553 0)
# Probe 319 (0.29501 0.37012 0)
# Probe 320 (0.54948 0.73272 0)
# Probe 321 (0.56544 0.74705 0)
# Probe 322 (0.33372 0.74707 0)
# Probe 323 (0.36399 0.73779 0)
# Probe 324 (0.35719 0.76838 0)
# Probe 325 (0.38638 0.75858 0)
# Probe 326 (0.38067 0.78779 0)
# Probe 327 (0.40823 0.77684 0)
# Probe 328 (0.41367 0.75039 0)
# Probe 329 (0.43362 0.76642 0)
# Probe 330 (0.25173 0.71427 0)
# Probe 331 (0.24473 0.75027 0)
# Probe 332 (0.25975 0.3813 0)
# Probe 333 (0.26797 0.34499 0)
# Probe 334 (0.30421 0.33478 0)
# Probe 335 (0.27752 0.30819 0)
# Probe 336 (0.31456 0.29709 0)
# Probe 337 (0.2521 0.41766 0)
# Probe 338 (0.28676 0.27009 0)
# Probe 339 (0.32475 0.25868 0)
# Probe 340 (0.43837 0.74278 0)
# Probe 341 (0.4566 0.75764 0)
# Probe 342 (0.45317 0.78141 0)
# Probe 343 (0.40335 0.80622 0)
# Probe 344 (0.69058 0.47415 0)
# Probe 345 (0.24255 0.31634 0)
# Probe 346 (0.47743 0.771 0)
# Probe 347 (0.47331 0.79489 0)
# Probe 348 (0.49525 0.78718 0)
# Probe 349 (0.49212 0.80953 0)
# Probe 350 (0.5132 0.80104 0)
# Probe 351 (0.823 0.51639 0)
# Probe 352 (0.35241 0.79944 0)
# Probe 353 (0.51044 0.82478 0)
# Probe 354 (0.53385 0.81364 0)
# Probe 355 (0.38531 0.59338 0)
# Probe 356 (0.45993 0.73516 0)
# Probe 357 (0.44367 0.72106 0)
# Probe 358 (0.29664 0.23105 0)
# Probe 359 (0.33454 0.21982 0)
# Probe 360 (0.3635 0.24772 0)
# Probe 361 (0.37328 0.20916 0)
# Probe 362 (0.40152 0.23707 0)
# Probe 363 (0.72103 0.50257 0)
# Probe 364 (0.21758 0.72547 0)
# Probe 365 (0.22572 0.68944 0)
# Probe 366 (0.20915 0.76209 0)
# Probe 367 (0.23821 0.78776 0)
# Probe 368 (0.46426 0.71407 0)
# Probe 369 (0.44912 0.7011 0)
# Probe 370 (0.22391 0.39238 0)
# Probe 371 (0.21586 0.43112 0)
# Probe 372 (0.48517 0.83446 0)
# Probe 373 (0.25639 0.2417 0)
# Probe 374 (0.41171 0.19861 0)
# Probe 375 (0.43966 0.22635 0)
# Probe 376 (0.75697 0.5354 0)
# Probe 377 (0.46707 0.6945 0)
# Probe 378 (0.4535 0.68254 0)
# Probe 379 (0.20091 0.8004 0)
# Probe 380 (0.63639 0.33354 0)
# Probe 381 (0.61638 0.31305 0)
# Probe 382 (0.64477 0.30444 0)
# Probe 383 (0.62223 0.28289 0)
# Probe 384 (0.65335 0.27351 0)
# Probe 385 (0.62947 0.24647 0)
# Probe 386 (0.66301 0.24052 0)
# Probe 387 (0.68664 0.26412 0)
# Probe 388 (0.69669 0.2309 0)
# Probe 389 (0.72232 0.25586 0)
# Probe 390 (0.73269 0.22062 0)
# Probe 391 (0.75927 0.24797 0)
# Probe 392 (0.66895 0.20381 0)
# Probe 393 (0.59493 0.29762 0)
# Probe 394 (0.7476 0.28077 0)
# Probe 395 (0.77014 0.21049 0)
# Probe 396 (0.78552 0.27514 0)
# Probe 397 (0.76871 0.31231 0)
# Probe 398 (0.48395 0.38258 0)
# Probe 399 (0.23122 0.82638 0)
# Probe 400 (0.44984 0.18815 0)
# Probe 401 (0.47744 0.2162 0)
# Probe 402 (0.4771 0.72714 0)
# Probe 403 (0.52987 0.84007 0)
# Probe 404 (0.5526 0.82972 0)
# Probe 405 (0.4871 0.17525 0)
# Probe 406 (0.47058 0.6771 0)
# Probe 407 (0.45755 0.66511 0)
# Probe 408 (0.19041 0.70019 0)
# Probe 409 (0.19896 0.66336 0)
# Probe 410 (0.30925 0.19333 0)
# Probe 411 (0.47397 0.65994 0)
# Probe 412 (0.4614 0.64828 0)
# Probe 413 (0.47728 0.64325 0)
# Probe 414 (0.46504 0.63188 0)
# Probe 415 (0.48066 0.62697 0)
# Probe 416 (0.46856 0.61573 0)
# Probe 417 (0.48437 0.6112 0)
# Probe 418 (0.47217 0.59964 0)
# Probe 419 (0.49031 0.59449 0)
# Probe 420 (0.4759 0.58331 0)
# Probe 421 (0.49154 0.57827 0)
# Probe 422 (0.479 0.56674 0)
# Probe 423 (0.49546 0.56136 0)
# Probe 424 (0.48237 0.54956 0)
# Probe 425 (0.49956 0.54396 0)
# Probe 426 (0.48586 0.53144 0)
# Probe 427 (0.50362 0.52614 0)
# Probe 428 (0.51815 0.54052 0)
# Probe 429 (0.52122 0.52159 0)
# Probe 430 (0.44949 0.63689 0)
# Probe 431 (0.45629 0.60459 0)
# Probe 432 (0.46322 0.57215 0)
# Probe 433 (0.53434 0.53314 0)
# Probe 434 (0.53789 0.51652 0)
# Probe 435 (0.54997 0.52814 0)
# Probe 436 (0.5541 0.51176 0)
# Probe 437 (0.5417 0.49964 0)
# Probe 438 (0.55864 0.49504 0)
# Probe 439 (0.57097 0.50771 0)
# Probe 440 (0.57563 0.49096 0)
# Probe 441 (0.58866 0.50581 0)
# Probe 442 (0.59248 0.487 0)
# Probe 443 (0.60439 0.4991 0)
# Probe 444 (0.46642 0.25388 0)
# Probe 445 (0.81057 0.30328 0)
# Probe 446 (0.79991 0.33891 0)
# Probe 447 (0.82441 0.26758 0)
# Probe 448 (0.39466 0.27418 0)
# Probe 449 (0.16211 0.67416 0)
# Probe 450 (0.1711 0.63637 0)
# Probe 451 (0.42946 0.70629 0)
# Probe 452 (0.18642 0.40355 0)
# Probe 453 (0.1783 0.44297 0)
# Probe 454 (0.20836 0.46931 0)
# Probe 455 (0.17047 0.48202 0)
# Probe 456 (0.2005 0.50767 0)
# Probe 457 (0.75211 0.77923 0)
# Probe 458 (0.79082 0.63953 0)
# Probe 459 (0.51528 0.2054 0)
# Probe 460 (0.52497 0.16421 0)
# Probe 461 (0.54597 0.48182 0)
# Probe 462 (0.4677 0.5374 0)
# Probe 463 (0.47147 0.51769 0)
# Probe 464 (0.51568 0.77871 0)
# Probe 465 (0.16281 0.52106 0)
# Probe 466 (0.44107 0.67034 0)
# Probe 467 (0.1709 0.77371 0)
# Probe 468 (0.20899 0.62905 0)
# Probe 469 (0.74199 0.18196 0)
# Probe 470 (0.50733 0.57259 0)
# Probe 471 (0.78245 0.17084 0)
# Probe 472 (0.55559 0.80591 0)
# Probe 473 (0.57375 0.81987 0)
# Probe 474 (0.16196 0.81401 0)
# Probe 475 (0.60913 0.48238 0)
# Probe 476 (0.62099 0.49493 0)
# Probe 477 (0.55 0.85633 0)
# Probe 478 (0.52432 0.8676 0)
# Probe 479 (0.30572 0.46146 0)
# Probe 480 (0.78733 0.7065 0)
# Probe 481 (0.83729 0.33057 0)
# Probe 482 (0.82678 0.36576 0)
# Probe 483 (0.6166 0.51087 0)
# Probe 484 (0.63298 0.5073 0)
# Probe 485 (0.78191 0.65782 0)
# Probe 486 (0.3843 0.17131 0)
# Probe 487 (0.35114 0.38446 0)
# Probe 488 (0.48397 0.68863 0)
# Probe 489 (0.63759 0.49119 0)
# Probe 490 (0.64943 0.50393 0)
# Probe 491 (0.57988 0.5213 0)
# Probe 492 (0.54648 0.54352 0)
# Probe 493 (0.13384 0.64765 0)
# Probe 494 (0.76531 0.35198 0)
# Probe 495 (0.49576 0.6229 0)
# Probe 496 (0.50849 0.51113 0)
# Probe 497 (0.62816 0.52226 0)
# Probe 498 (0.86182 0.35688 0)
# Probe 499 (0.85176 0.3922 0)
# Probe 500 (0.81771 0.40028 0)
# Probe 501 (0.84119 0.42537 0)
# Probe 502 (0.86669 0.62541 0)
# Probe 503 (0.87645 0.59668 0)
# Probe 504 (0.59672 0.46908 0)
# Probe 505 (0.88728 0.37761 0)
# Probe 506 (0.45257 0.52436 0)
# Probe 507 (0.14769 0.41604 0)
# Probe 508 (0.15651 0.37508 0)
# Probe 509 (0.55355 0.19429 0)
# Probe 510 (0.56388 0.15582 0)
# Probe 511 (0.45972 0.14946 0)
# Probe 512 (0.489 0.65391 0)
# Probe 513 (0.45622 0.50349 0)
# Probe 514 (0.57514 0.79861 0)
# Probe 515 (0.59415 0.80746 0)
# Probe 516 (0.59217 0.8319 0)
# Probe 517 (0.6111 0.82145 0)
# Probe 518 (0.56096 0.78615 0)
# Probe 519 (0.7711 0.64254 0)
# Probe 520 (0.77791 0.62518 0)
# Probe 521 (0.56065 0.53893 0)
# Probe 522 (0.53488 0.12347 0)
# Probe 523 (0.61338 0.52553 0)
# Probe 524 (0.14422 0.60734 0)
# Probe 525 (0.12932 0.78601 0)
# Probe 526 (0.2369 0.49596 0)
# Probe 527 (0.22968 0.53234 0)
# Probe 528 (0.26813 0.81255 0)
# Probe 529 (0.26209 0.85233 0)
# Probe 530 (0.6146 0.46438 0)
# Probe 531 (0.22397 0.86729 0)
# Probe 532 (0.87215 0.31778 0)
# Probe 533 (0.25593 0.89449 0)
# Probe 534 (0.2992 0.87788 0)
# Probe 535 (0.54263 0.23209 0)
# Probe 536 (0.75167 0.1407 0)
# Probe 537 (0.60145 0.45046 0)
# Probe 538 (0.61197 0.80102 0)
# Probe 539 (0.62843 0.81175 0)
# Probe 540 (0.6273 0.83312 0)
# Probe 541 (0.33855 0.3244 0)
# Probe 542 (0.12323 0.68548 0)
# Probe 543 (0.6546 0.48737 0)
# Probe 544 (0.66658 0.49957 0)
# Probe 545 (0.66091 0.51614 0)
# Probe 546 (0.6764 0.51317 0)
# Probe 547 (0.67113 0.52801 0)
# Probe 548 (0.68626 0.52512 0)
# Probe 549 (0.43189 0.51238 0)
# Probe 550 (0.54739 0.88615 0)
# Probe 551 (0.1291 0.49459 0)
# Probe 552 (0.12331 0.53519 0)
# Probe 553 (0.59175 0.18429 0)
# Probe 554 (0.60278 0.14693 0)
# Probe 555 (0.68088 0.53885 0)
# Probe 556 (0.69571 0.53643 0)
# Probe 557 (0.0948 0.66008 0)
# Probe 558 (0.79367 0.12863 0)
# Probe 559 (0.82525 0.16042 0)
# Probe 560 (0.76273 0.88239 0)
# Probe 561 (0.79502 0.88073 0)
# Probe 562 (0.57566 0.87347 0)
# Probe 563 (0.76433 0.65902 0)
# Probe 564 (0.71143 0.15251 0)
# Probe 565 (0.75994 0.62871 0)
# Probe 566 (0.76556 0.61267 0)
# Probe 567 (0.12036 0.8287 0)
# Probe 568 (0.65718 0.5308 0)
# Probe 569 (0.51827 0.89819 0)
# Probe 570 (0.1534 0.85643 0)
# Probe 571 (0.77321 0.67425 0)
# Probe 572 (0.47801 0.49676 0)
# Probe 573 (0.66244 0.32764 0)
# Probe 574 (0.45288 0.80491 0)
# Probe 575 (0.64301 0.47438 0)
# Probe 576 (0.6903 0.54864 0)
# Probe 577 (0.70515 0.54743 0)
# Probe 578 (0.71047 0.53372 0)
# Probe 579 (0.72011 0.54536 0)
# Probe 580 (0.71296 0.5605 0)
# Probe 581 (0.72914 0.55736 0)
# Probe 582 (0.72297 0.57255 0)
# Probe 583 (0.73856 0.56909 0)
# Probe 584 (0.80997 0.43329 0)
# Probe 585 (0.78614 0.40983 0)
# Probe 586 (0.83187 0.45664 0)
# Probe 587 (0.86383 0.44979 0)
# Probe 588 (0.55687 0.55306 0)
# Probe 589 (0.54404 0.55737 0)
# Probe 590 (0.11378 0.87297 0)
# Probe 591 (0.62885 0.79386 0)
# Probe 592 (0.64399 0.80275 0)
# Probe 593 (0.69211 0.51031 0)
# Probe 594 (0.55406 0.56772 0)
# Probe 595 (0.54122 0.57095 0)
# Probe 596 (0.532 0.56246 0)
# Probe 597 (0.52951 0.57499 0)
# Probe 598 (0.83686 0.11688 0)
# Probe 599 (0.86916 0.14958 0)
# Probe 600 (0.85744 0.19283 0)
# Probe 601 (0.26497 0.5206 0)
# Probe 602 (0.2572 0.55635 0)
# Probe 603 (0.45186 0.54502 0)
# Probe 604 (0.73348 0.58293 0)
# Probe 605 (0.74805 0.58067 0)
# Probe 606 (0.7425 0.59508 0)
# Probe 607 (0.75648 0.56448 0)
# Probe 608 (0.76751 0.57971 0)
# Probe 609 (0.64471 0.78554 0)
# Probe 610 (0.65895 0.79431 0)
# Probe 611 (0.56916 0.54892 0)
# Probe 612 (0.5786 0.77845 0)
# Probe 613 (0.56335 0.77012 0)
# Probe 614 (0.5488 0.77433 0)
# Probe 615 (0.62122 0.44551 0)
# Probe 616 (0.52668 0.48635 0)
# Probe 617 (0.53221 0.46857 0)
# Probe 618 (0.55052 0.46372 0)
# Probe 619 (0.85456 0.48028 0)
# Probe 620 (0.88665 0.47453 0)
# Probe 621 (0.8768 0.50422 0)
# Probe 622 (0.89831 0.44157 0)
# Probe 623 (0.62333 0.5349 0)
# Probe 624 (0.22377 0.56842 0)
# Probe 625 (0.25144 0.59034 0)
# Probe 626 (0.72559 0.53027 0)
# Probe 627 (0.11644 0.38796 0)
# Probe 628 (0.12558 0.34602 0)
# Probe 629 (0.16573 0.33431 0)
# Probe 630 (0.13559 0.30495 0)
# Probe 631 (0.17639 0.29224 0)
# Probe 632 (0.14695 0.26259 0)
# Probe 633 (0.08954 0.31579 0)
# Probe 634 (0.10727 0.42889 0)
# Probe 635 (0.18647 0.24797 0)
# Probe 636 (0.15673 0.2176 0)
# Probe 637 (0.19714 0.2039 0)
# Probe 638 (0.16615 0.17308 0)
# Probe 639 (0.20987 0.16009 0)
# Probe 640 (0.17651 0.12794 0)
# Probe 641 (0.12427 0.18682 0)
# Probe 642 (0.6589 0.47295 0)
# Probe 643 (0.28415 0.57733 0)
# Probe 644 (0.72521 0.91448 0)
# Probe 645 (0.49309 0.87709 0)
# Probe 646 (0.45973 0.48063 0)
# Probe 647 (0.22171 0.11659 0)
# Probe 648 (0.89694 0.62044 0)
# Probe 649 (0.90824 0.58842 0)
# Probe 650 (0.88715 0.65298 0)
# Probe 651 (0.88309 0.56186 0)
# Probe 652 (0.92563 0.55278 0)
# Probe 653 (0.60656 0.43007 0)
# Probe 654 (0.58325 0.4559 0)
# Probe 655 (0.8819 0.10892 0)
# Probe 656 (0.75705 0.67542 0)
# Probe 657 (0.76587 0.68897 0)
# Probe 658 (0.55127 0.76107 0)
# Probe 659 (0.53712 0.76388 0)
# Probe 660 (0.54051 0.74934 0)
# Probe 661 (0.52569 0.75357 0)
# Probe 662 (0.52799 0.7393 0)
# Probe 663 (0.5139 0.74372 0)
# Probe 664 (0.51701 0.72919 0)
# Probe 665 (0.25287 0.14615 0)
# Probe 666 (0.26624 0.10392 0)
# Probe 667 (0.75369 0.68883 0)
# Probe 668 (0.7591 0.69953 0)
# Probe 669 (0.63672 0.5328 0)
# Probe 670 (0.50257 0.73358 0)
# Probe 671 (0.50606 0.71886 0)
# Probe 672 (0.50014 0.74989 0)
# Probe 673 (0.72085 0.11197 0)
# Probe 674 (0.67951 0.12242 0)
# Probe 675 (0.51917 0.71563 0)
# Probe 676 (0.50923 0.7052 0)
# Probe 677 (0.49753 0.70947 0)
# Probe 678 (0.75568 0.64525 0)
# Probe 679 (0.61622 0.78572 0)
# Probe 680 (0.58921 0.78925 0)
# Probe 681 (0.75116 0.61654 0)
# Probe 682 (0.29648 0.1308 0)
# Probe 683 (0.31262 0.09019 0)
# Probe 684 (0.34353 0.12162 0)
# Probe 685 (0.91598 0.50003 0)
# Probe 686 (0.6593 0.811 0)
# Probe 687 (0.67416 0.80199 0)
# Probe 688 (0.67216 0.78348 0)
# Probe 689 (0.68861 0.79242 0)
# Probe 690 (0.68731 0.77646 0)
# Probe 691 (0.70241 0.78346 0)
# Probe 692 (0.70026 0.76659 0)
# Probe 693 (0.71662 0.77468 0)
# Probe 694 (0.71506 0.75837 0)
# Probe 695 (0.67531 0.76926 0)
# Probe 696 (0.73187 0.76678 0)
# Probe 697 (0.72785 0.74743 0)
# Probe 698 (0.74557 0.75723 0)
# Probe 699 (0.7432 0.73907 0)
# Probe 700 (0.75831 0.7469 0)
# Probe 701 (0.75827 0.72855 0)
# Probe 702 (0.74063 0.72185 0)
# Probe 703 (0.14111 0.74638 0)
# Probe 704 (0.09733 0.76032 0)
# Probe 705 (0.53586 0.45126 0)
# Probe 706 (0.63092 0.54392 0)
# Probe 707 (0.66684 0.54052 0)
# Probe 708 (0.57931 0.9019 0)
# Probe 709 (0.74277 0.79994 0)
# Probe 710 (0.61581 0.9177 0)
# Probe 711 (0.51077 0.47209 0)
# Probe 712 (0.57422 0.53512 0)
# Probe 713 (0.58354 0.54559 0)
# Probe 714 (0.64867 0.86596 0)
# Probe 715 (0.52209 0.70252 0)
# Probe 716 (0.08519 0.50693 0)
# Probe 717 (0.7295 0.7321 0)
# Probe 718 (0.21849 0.91034 0)
# Probe 719 (0.78217 0.60803 0)
# Probe 720 (0.25016 0.93932 0)
# Probe 721 (0.57578 0.76421 0)
# Probe 722 (0.79823 0.68741 0)
# Probe 723 (0.71052 0.57258 0)
# Probe 724 (0.63414 0.18077 0)
# Probe 725 (0.51201 0.69295 0)
# Probe 726 (0.51355 0.68087 0)
# Probe 727 (0.50444 0.68499 0)
# Probe 728 (0.50348 0.67314 0)
# Probe 729 (0.48693 0.6724 0)
# Probe 730 (0.53092 0.79363 0)
# Probe 731 (0.14757 0.90892 0)
# Probe 732 (0.09836 0.9186 0)
# Probe 733 (0.61025 0.53755 0)
# Probe 734 (0.60071 0.53028 0)
# Probe 735 (0.74461 0.63231 0)
# Probe 736 (0.70327 0.75226 0)
# Probe 737 (0.49208 0.63806 0)
# Probe 738 (0.50669 0.63305 0)
# Probe 739 (0.50957 0.61946 0)
# Probe 740 (0.51834 0.62742 0)
# Probe 741 (0.50335 0.64873 0)
# Probe 742 (0.49991 0.60839 0)
# Probe 743 (0.5134 0.60645 0)
# Probe 744 (0.50491 0.59739 0)
# Probe 745 (0.51788 0.5932 0)
# Probe 746 (0.62248 0.86048 0)
# Probe 747 (0.95493 0.52233 0)
# Probe 748 (0.52602 0.9601 0)
# Probe 749 (0.70727 0.48748 0)
# Probe 750 (0.48569 0.91164 0)
# Probe 751 (0.45669 0.88623 0)
# Probe 752 (0.7928 0.37603 0)
# Probe 753 (0.75843 0.39004 0)
# Probe 754 (0.73487 0.36621 0)
# Probe 755 (0.73649 0.33371 0)
# Probe 756 (0.70788 0.34852 0)
# Probe 757 (0.70867 0.31652 0)
# Probe 758 (0.71016 0.37849 0)
# Probe 759 (0.75952 0.42389 0)
# Probe 760 (0.39305 0.73149 0)
# Probe 761 (0.37411 0.71086 0)
# Probe 762 (0.40367 0.70477 0)
# Probe 763 (0.38444 0.68795 0)
# Probe 764 (0.40695 0.67991 0)
# Probe 765 (0.27703 0.4817 0)
# Probe 766 (0.29812 0.51408 0)
# Probe 767 (0.95257 0.67435 0)
# Probe 768 (0.91981 0.70314 0)
# Probe 769 (0.91601 0.7423 0)
# Probe 770 (0.95544 0.76364 0)
# Probe 771 (0.91589 0.80102 0)
# Probe 772 (0.88306 0.76964 0)
# Probe 773 (0.39099 0.56658 0)
# Probe 774 (0.40952 0.58442 0)
# Probe 775 (0.40483 0.60891 0)
# Probe 776 (0.42558 0.59965 0)
# Probe 777 (0.43061 0.57869 0)
# Probe 778 (0.42414 0.62332 0)
# Probe 779 (0.4027 0.63127 0)
# Probe 780 (0.41828 0.64537 0)
# Probe 781 (0.78868 0.57292 0)
# Probe 782 (0.59777 0.54253 0)
# Probe 783 (0.64456 0.52105 0)
# Probe 784 (0.47616 0.74857 0)
# Probe 785 (0.27459 0.05297 0)
# Probe 786 (0.90002 0.18314 0)
# Probe 787 (0.8881 0.22742 0)
# Probe 788 (0.15976 0.5654 0)
# Probe 789 (0.7694 0.55057 0)
# Probe 790 (0.41405 0.56054 0)
# Probe 791 (0.19569 0.08356 0)
# Probe 792 (0.14142 0.09574 0)
# Probe 793 (0.63708 0.4275 0)
# Probe 794 (0.69158 0.81002 0)
# Probe 795 (0.40349 0.51454 0)
# Probe 796 (0.4143 0.48575 0)
# Probe 797 (0.80159 0.46198 0)
# Probe 798 (0.6966 0.56034 0)
# Probe 799 (0.51066 0.55677 0)
# Probe 800 (0.53684 0.6041 0)
# Probe 801 (0.54286 0.59507 0)
# Probe 802 (0.55722 0.5797 0)
# Probe 803 (0.52156 0.65515 0)
# Probe 804 (0.51112 0.66073 0)
# Probe 805 (0.39902 0.65102 0)
# Probe 806 (0.69379 0.081 0)
# Probe 807 (0.64444 0.08916 0)
# Probe 808 (0.56523 0.57273 0)
# Probe 809 (0.41983 0.53665 0)
# Probe 810 (0.42862 0.26487 0)
# Probe 811 (0.45747 0.2893 0)
# Probe 812 (0.49298 0.27912 0)
# Probe 813 (0.48261 0.3141 0)
# Probe 814 (0.44954 0.32295 0)
# Probe 815 (0.51579 0.3053 0)
# Probe 816 (0.50653 0.33735 0)
# Probe 817 (0.53829 0.32892 0)
# Probe 818 (0.54533 0.30032 0)
# Probe 819 (0.56901 0.32039 0)
# Probe 820 (0.50368 0.24463 0)
# Probe 821 (0.82558 0.95703 0)
# Probe 822 (0.85287 0.9153 0)
# Probe 823 (0.89462 0.9154 0)
# Probe 824 (0.87419 0.87716 0)
# Probe 825 (0.91336 0.87546 0)
# Probe 826 (0.89293 0.841 0)
# Probe 827 (0.85096 0.84096 0)
# Probe 828 (0.60243 0.55403 0)
# Probe 829 (0.58479 0.55978 0)
# Probe 830 (0.65631 0.55524 0)
# Probe 831 (0.67634 0.56203 0)
# Probe 832 (0.8221 0.48728 0)
# Probe 833 (0.94773 0.58973 0)
# Probe 834 (0.68648 0.56665 0)
# Probe 835 (0.47311 0.34226 0)
# Probe 836 (0.44242 0.351 0)
# Probe 837 (0.41802 0.33207 0)
# Probe 838 (0.41307 0.3661 0)
# Probe 839 (0.38849 0.34149 0)
# Probe 840 (0.40229 0.40006 0)
# Probe 841 (0.60311 0.76568 0)
# Probe 842 (0.59423 0.77563 0)
# Probe 843 (0.73844 0.66546 0)
# Probe 844 (0.6458 0.76673 0)
# Probe 845 (0.78107 0.44264 0)
# Probe 846 (0.35697 0.2903 0)
# Probe 847 (0.73692 0.64349 0)
# Probe 848 (0.74956 0.66026 0)
# Probe 849 (0.42748 0.95813 0)
# Probe 850 (0.37657 0.95777 0)
# Probe 851 (0.35769 0.91651 0)
# Probe 852 (0.40704 0.91719 0)
# Probe 853 (0.3807 0.88201 0)
# Probe 854 (0.72019 0.95948 0)
# Probe 855 (0.72325 0.6041 0)
# Probe 856 (0.7109 0.58772 0)
# Probe 857 (0.04261 0.5238 0)
# Probe 858 (0.54295 0.72456 0)
# Probe 859 (0.55727 0.74008 0)
# Probe 860 (0.6352 0.76819 0)
# Probe 861 (0.61375 0.76729 0)
# Probe 862 (0.04025 0.4225 0)
# Probe 863 (0.53026 0.72476 0)
# Probe 864 (0.92253 0.64376 0)
# Probe 865 (0.41965 0.8806 0)
# Probe 866 (0.4004 0.84254 0)
# Probe 867 (0.36264 0.84991 0)
# Probe 868 (0.43837 0.85221 0)
# Probe 869 (0.52556 0.04224 0)
# Probe 870 (0.4999 0.0887 0)
# Probe 871 (0.45184 0.08424 0)
# Probe 872 (0.42708 0.0431 0)
# Probe 873 (0.40832 0.08611 0)
# Probe 874 (0.77795 0.91646 0)
# Probe 875 (0.72818 0.61385 0)
# Probe 876 (0.71874 0.72546 0)
# Probe 877 (0.96074 0.42278 0)
# Probe 878 (0.96081 0.37504 0)
# Probe 879 (0.22001 0.27727 0)
# Probe 880 (0.24514 0.45578 0)
# Probe 881 (0.53185 0.59468 0)
# Probe 882 (0.92325 0.35411 0)
# Probe 883 (0.60286 0.51564 0)
# Probe 884 (0.60333 0.88305 0)
# Probe 885 (0.73493 0.68641 0)
# Probe 886 (0.72797 0.70634 0)
# Probe 887 (0.73844 0.70652 0)
# Probe 888 (0.55003 0.08321 0)
# Probe 889 (0.59634 0.08201 0)
# Probe 890 (0.62104 0.04551 0)
# Probe 891 (0.58007 0.21958 0)
# Probe 892 (0.57123 0.24959 0)
# Probe 893 (0.61528 0.21389 0)
# Probe 894 (0.65844 0.78158 0)
# Probe 895 (0.5743 0.75299 0)
# Probe 896 (0.38286 0.61752 0)
# Probe 897 (0.04827 0.76989 0)
# Probe 898 (0.95799 0.27648 0)
# Probe 899 (0.91396 0.308 0)
# Probe 900 (0.87282 0.27265 0)
# Probe 901 (0.32971 0.04528 0)
# Probe 902 (0.83324 0.8752 0)
# Probe 903 (0.65422 0.54381 0)
# Probe 904 (0.52551 0.60493 0)
# Probe 905 (0.58789 0.53284 0)
# Probe 906 (0.8726 0.80717 0)
# Probe 907 (0.04068 0.62169 0)
# Probe 908 (0.07822 0.59585 0)
# Probe 909 (0.04777 0.66942 0)
# Probe 910 (0.29066 0.54572 0)
# Probe 911 (0.04263 0.32617 0)
# Probe 912 (0.05242 0.27872 0)
# Probe 913 (0.08087 0.2451 0)
# Probe 914 (0.75556 0.45181 0)
# Probe 915 (0.95766 0.22909 0)
# Probe 916 (0.53852 0.58379 0)
# Probe 917 (0.71949 0.79462 0)
# Probe 918 (0.56505 0.5234 0)
# Probe 919 (0.23487 0.65489 0)
# Probe 920 (0.25966 0.67932 0)
# Probe 921 (0.27384 0.64349 0)
# Probe 922 (0.08197 0.55146 0)
# Probe 923 (0.53277 0.70563 0)
# Probe 924 (0.43484 0.4732 0)
# Probe 925 (0.67549 0.55092 0)
# Probe 926 (0.0416 0.87134 0)
# Probe 927 (0.2412 0.19447 0)
# Probe 928 (0.77067 0.04892 0)
# Probe 929 (0.77961 0.72655 0)
# Probe 930 (0.1818 0.59982 0)
# Probe 931 (0.0824 0.69853 0)
# Probe 932 (0.04265 0.17643 0)
# Probe 933 (0.0855 0.15624 0)
# Probe 934 (0.08631 0.1005 0)
# Probe 935 (0.04244 0.07545 0)
# Probe 936 (0.8749 0.04324 0)
# Probe 937 (0.95743 0.12372 0)
# Probe 938 (0.5342 0.27066 0)
# Probe 939 (0.4525 0.92376 0)
# Probe 940 (0.1943 0.54524 0)
# Probe 941 (0.81324 0.20135 0)
# Probe 942 (0.2738 0.7753 0)
# Probe 943 (0.2998 0.79675 0)
# Probe 944 (0.29718 0.83531 0)
# Probe 945 (0.33229 0.48029 0)
# Probe 946 (0.0826 0.80002 0)
# Probe 947 (0.55911 0.3499 0)
# Probe 948 (0.88525 0.71502 0)
# Probe 949 (0.28917 0.92231 0)
# Probe 950 (0.70252 0.74046 0)
# Probe 951 (0.71305 0.74454 0)
# Probe 952 (0.52117 0.61596 0)
# Probe 953 (0.63002 0.77901 0)
# Probe 954 (0.19523 0.36395 0)
# Probe 955 (0.84205 0.53444 0)
# Probe 956 (0.42541 0.29972 0)
# Probe 957 (0.32795 0.35979 0)
# Probe 958 (0.51873 0.43907 0)
# Probe 959 (0.48667 0.47532 0)
# Probe 960 (0.67931 0.30008 0)
# Probe 961 (0.42089 0.72734 0)
# Probe 962 (0.29101 0.66975 0)
# Probe 963 (0.48311 0.70759 0)
# Probe 964 (0.62486 0.55258 0)
# Probe 965 (0.49502 0.13668 0)
# Probe 966 (0.53227 0.5479 0)
# Probe 967 (0.61709 0.4098 0)
# Probe 968 (0.27989 0.44181 0)
# Probe 969 (0.56315 0.4781 0)
# Probe 970 (0.08212 0.35906 0)
# Probe 971 (0.67643 0.75815 0)