# Probe 0 (0 0 0)
# Probe 1 (1 0 0)
# Probe 2 (1 1 0)
# Probe 3 (0 1 0)
# Probe 4 (0.62 0.36 0)
# Probe 5 (0.52 0.26 0)
# Probe 6 (0.42 0.36 0)
# Probe 7 (0.52 0.46 0)
# Probe 8 (0.05 0 0)
# Probe 9 (0.1 0 0)
# Probe 10 (0.15 0 0)
# Probe 11 (0.2 0 0)
# Probe 12 (0.25 0 0)
# Probe 13 (0.3 0 0)
# Probe 14 (0.35 0 0)
# Probe 15 (0.4 0 0)
# Probe 16 (0.45 0 0)
# Probe 17 (0.5 0 0)
# Probe 18 (0.55 0 0)
# Probe 19 (0.6 0 0)
# Probe 20 (0.65 0 0)
# Probe 21 (0.7 0 0)
# Probe 22 (0.75 0 0)
# Probe 23 (0.8 0 0)
# Probe 24 (0.85 0 0)
# Probe 25 (0.9 0 0)
# Probe 26 (0.95 0 0)
# Probe 27 (1 0.05 0)
# Probe 28 (1 0.1 0)
# Probe 29 (1 0.15 0)
# Probe 30 (1 0.2 0)
# Probe 31 (1 0.25 0)
# Probe 32 (1 0.3 0)
# Probe 33 (1 0.35 0)
# Probe 34 (1 0.4 0)
# Probe 35 (1 0.45 0)
# Probe 36 (1 0.5 0)
# Probe 37 (1 0.55 0)
# Probe 38 (1 0.6 0)
# Probe 39 (1 0.65 0)
# Probe 40 (1 0.7 0)
# Probe 41 (1 0.75 0)
# Probe 42 (1 0.8 0)
# Probe 43 (1 0.85 0)
# Probe 44 (1 0.9 0)
# Probe 45 (1 0.95 0)
# Probe 46 (0.95 1 0)
# Probe 47 (0.9 1 0)
# Probe 48 (0.85 1 0)
# Probe 49 (0.8 1 0)
# Probe 50 (0.75 1 0)
# Probe 51 (0.7 1 0)
# Probe 52 (0.65 1 0)
# Probe 53 (0.6 1 0)
# Probe 54 (0.55 1 0)
# Probe 55 (0.5 1 0)
# Probe 56 (0.45 1 0)
# Probe 57 (0.4 1 0)
# Probe 58 (0.35 1 0)
# Probe 59 (0.3 1 0)
# Probe 60 (0.25 1 0)
# Probe 61 (0.2 1 0)
# Probe 62 (0.15 1 0)
# Probe 63 (0.1 1 0)
# Probe 64 (0.05 1 0)
# Probe 65 (0 0.95 0)
# Probe 66 (0 0.9 0)
# Probe 67 (0 0.85 0)
# Probe 68 (0 0.8 0)
# Probe 69 (0 0.75 0)
# Probe 70 (0 0.7 0)
# Probe 71 (0 0.65 0)
# Probe 72 (0 0.6 0)
# Probe 73 (0 0.55 0)
# Probe 74 (0 0.5 0)
# Probe 75 (0 0.45 0)
# Probe 76 (0 0.4 0)
# Probe 77 (0 0.35 0)
# Probe 78 (0 0.3 0)
# Probe 79 (0 0.25 0)
# Probe 80 (0 0.2 0)
# Probe 81 (0 0.15 0)
# Probe 82 (0 0.1 0)
# Probe 83 (0 0.05 0)
# Probe 84 (0.61952 0.3502 0)
# Probe 85 (0.61808 0.34049 0)
# Probe 86 (0.61569 0.33097 0)
# Probe 87 (0.61239 0.32173 0)
# Probe 88 (0.60819 0.31286 0)
# Probe 89 (0.60315 0.30444 0)
# Probe 90 (0.5973 0.29656 0)
# Probe 91 (0.59071 0.28929 0)
# Probe 92 (0.58344 0.2827 0)
# Probe 93 (0.57556 0.27685 0)
# Probe 94 (0.56714 0.27181 0)
# Probe 95 (0.55827 0.26761 0)
# Probe 96 (0.54903 0.26431 0)
# Probe 97 (0.53951 0.26192 0)
# Probe 98 (0.5298 0.26048 0)
# Probe 99 (0.5102 0.26048 0)
# Probe 100 (0.50049 0.26192 0)
# Probe 101 (0.49097 0.26431 0)
# Probe 102 (0.48173 0.26761 0)
# Probe 103 (0.47286 0.27181 0)
# Probe 104 (0.46444 0.27685 0)
# Probe 105 (0.45656 0.2827 0)
# Probe 106 (0.44929 0.28929 0)
# Probe 107 (0.4427 0.29656 0)
# Probe 108 (0.43685 0.30444 0)
# Probe 109 (0.43181 0.31286 0)
# Probe 110 (0.42761 0.32173 0)
# Probe 111 (0.42431 0.33097 0)
# Probe 112 (0.42192 0.34049 0)
# Probe 113 (0.42048 0.3502 0)
# Probe 114 (0.42048 0.3698 0)
# Probe 115 (0.42192 0.37951 0)
# Probe 116 (0.42431 0.38903 0)
# Probe 117 (0.42761 0.39827 0)
# Probe 118 (0.43181 0.40714 0)
# Probe 119 (0.43685 0.41556 0)
# Probe 120 (0.4427 0.42344 0)
# Probe 121 (0.44929 0.43071 0)
# Probe 122 (0.45656 0.4373 0)
# Probe 123 (0.46444 0.44315 0)
# Probe 124 (0.47286 0.44819 0)
# Probe 125 (0.48173 0.45239 0)
# Probe 126 (0.49097 0.45569 0)
# Probe 127 (0.50049 0.45808 0)
# Probe 128 (0.5102 0.45952 0)
# Probe 129 (0.5298 0.45952 0)
# Probe 130 (0.53951 0.45808 0)
# Probe 131 (0.54903 0.45569 0)
# Probe 132 (0.55827 0.45239 0)
# Probe 133 (0.56714 0.44819 0)
# Probe 134 (0.57556 0.44315 0)
# Probe 135 (0.58344 0.4373 0)
# Probe 136 (0.59071 0.43071 0)
# Probe 137 (0.5973 0.42344 0)
# Probe 138 (0.60315 0.41556 0)
# Probe 139 (0.60819 0.40714 0)
# Probe 140 (0.61239 0.39827 0)
# Probe 141 (0.61569 0.38903 0)
# Probe 142 (0.61808 0.37951 0)
# Probe 143 (0.61952 0.3698 0)
# Probe 144 (0.32523 0.95792 0)
# Probe 145 (0.67337 0.96152 0)
# Probe 146 (0.95929 0.67918 0)
# Probe 147 (0.47512 0.95908 0)
# Probe 148 (0.04018 0.62504 0)
# Probe 149 (0.04136 0.22547 0)
# Probe 150 (0.03799 0.47511 0)
# Probe 151 (0.96384 0.52922 0)
# Probe 152 (0.95946 0.2273 0)
# Probe 153 (0.26968 0.03888 0)
# Probe 154 (0.95622 0.37566 0)
# Probe 155 (0.7271 0.04153 0)
# Probe 156 (0.04138 0.77228 0)
# Probe 157 (0.42757 0.04269 0)
# Probe 158 (0.57308 0.04119 0)
# Probe 159 (0.51481 0.25149 0)
# Probe 160 (0.49367 0.25487 0)
# Probe 161 (0.53707 0.25339 0)
# Probe 162 (0.82896 0.95891 0)
# Probe 163 (0.17549 0.95725 0)
# Probe 164 (0.95091 0.81918 0)
# Probe 165 (0.82249 0.04102 0)
# Probe 166 (0.18043 0.04235 0)
# Probe 167 (0.04088 0.32137 0)
# Probe 168 (0.57371 0.95043 0)
# Probe 169 (0.95891 0.12477 0)
# Probe 170 (0.04109 0.13054 0)
# Probe 171 (0.04356 0.87758 0)
# Probe 172 (0.92459 0.95378 0)
# Probe 173 (0.92057 0.04793 0)
# Probe 174 (0.07524 0.04214 0)
# Probe 175 (0.07522 0.95767 0)
# Probe 176 (0.774 0.04105 0)
# Probe 177 (0.75035 0.08073 0)
# Probe 178 (0.70786 0.08105 0)
# Probe 179 (0.56598 0.26157 0)
# Probe 180 (0.72811 0.11479 0)
# Probe 181 (0.59237 0.28046 0)
# Probe 182 (0.69277 0.11736 0)
# Probe 183 (0.70962 0.14601 0)
# Probe 184 (0.67889 0.14865 0)
# Probe 185 (0.69389 0.17908 0)
# Probe 186 (0.72385 0.17492 0)
# Probe 187 (0.71217 0.20212 0)
# Probe 188 (0.61257 0.30447 0)
# Probe 189 (0.73922 0.20144 0)
# Probe 190 (0.72564 0.22517 0)
# Probe 191 (0.7542 0.22594 0)
# Probe 192 (0.73967 0.24815 0)
# Probe 193 (0.62548 0.33286 0)
# Probe 194 (0.76836 0.25077 0)
# Probe 195 (0.75099 0.27518 0)
# Probe 196 (0.6638 0.17641 0)
# Probe 197 (0.78292 0.27586 0)
# Probe 198 (0.76761 0.30057 0)
# Probe 199 (0.74233 0.30327 0)
# Probe 200 (0.75378 0.32567 0)
# Probe 201 (0.62825 0.36532 0)
# Probe 202 (0.69927 0.2268 0)
# Probe 203 (0.781 0.32563 0)
# Probe 204 (0.76603 0.34915 0)
# Probe 205 (0.73956 0.34834 0)
# Probe 206 (0.75078 0.37213 0)
# Probe 207 (0.77752 0.37354 0)
# Probe 208 (0.76176 0.39671 0)
# Probe 209 (0.62175 0.39657 0)
# Probe 210 (0.78948 0.39877 0)
# Probe 211 (0.77293 0.42111 0)
# Probe 212 (0.7463 0.4188 0)
# Probe 213 (0.7568 0.44218 0)
# Probe 214 (0.73147 0.43909 0)
# Probe 215 (0.74132 0.4619 0)
# Probe 216 (0.60558 0.42365 0)
# Probe 217 (0.71728 0.45891 0)
# Probe 218 (0.72666 0.48121 0)
# Probe 219 (0.70434 0.47793 0)
# Probe 220 (0.7121 0.50002 0)
# Probe 221 (0.68855 0.49548 0)
# Probe 222 (0.6977 0.51939 0)
# Probe 223 (0.67542 0.51756 0)
# Probe 224 (0.68343 0.53886 0)
# Probe 225 (0.66112 0.53739 0)
# Probe 226 (0.66875 0.5583 0)
# Probe 227 (0.6464 0.55695 0)
# Probe 228 (0.65357 0.5777 0)
# Probe 229 (0.63049 0.57559 0)
# Probe 230 (0.63946 0.59836 0)
# Probe 231 (0.61593 0.595 0)
# Probe 232 (0.62479 0.61935 0)
# Probe 233 (0.59971 0.61577 0)
# Probe 234 (0.6511 0.62254 0)
# Probe 235 (0.54615 0.4653 0)
# Probe 236 (0.60912 0.64089 0)
# Probe 237 (0.58231 0.63774 0)
# Probe 238 (0.57236 0.61228 0)
# Probe 239 (0.55658 0.63507 0)
# Probe 240 (0.51468 0.46825 0)
# Probe 241 (0.68825 0.56381 0)
# Probe 242 (0.7367 0.50363 0)
# Probe 243 (0.56578 0.65984 0)
# Probe 244 (0.53851 0.6554 0)
# Probe 245 (0.53181 0.62638 0)
# Probe 246 (0.51207 0.65012 0)
# Probe 247 (0.50196 0.62548 0)
# Probe 248 (0.48531 0.64609 0)
# Probe 249 (0.47655 0.62107 0)
# Probe 250 (0.45925 0.64181 0)
# Probe 251 (0.45184 0.616 0)
# Probe 252 (0.43307 0.63774 0)
# Probe 253 (0.42582 0.60735 0)
# Probe 254 (0.40563 0.63344 0)
# Probe 255 (0.39649 0.60698 0)
# Probe 256 (0.45544 0.44705 0)
# Probe 257 (0.3769 0.62979 0)
# Probe 258 (0.36744 0.60247 0)
# Probe 259 (0.48322 0.46213 0)
# Probe 260 (0.34786 0.62535 0)
# Probe 261 (0.33726 0.59658 0)
# Probe 262 (0.41345 0.66197 0)
# Probe 263 (0.49712 0.67259 0)
# Probe 264 (0.57551 0.45265 0)
# Probe 265 (0.3173 0.62071 0)
# Probe 266 (0.32929 0.65033 0)
# Probe 267 (0.30661 0.59091 0)
# Probe 268 (0.33106 0.56482 0)
# Probe 269 (0.2973 0.56103 0)
# Probe 270 (0.31658 0.53777 0)
# Probe 271 (0.42756 0.41482 0)
# Probe 272 (0.28709 0.53269 0)
# Probe 273 (0.3059 0.51073 0)
# Probe 274 (0.27744 0.50503 0)
# Probe 275 (0.29591 0.48387 0)
# Probe 276 (0.2665 0.47685 0)
# Probe 277 (0.28646 0.45682 0)
# Probe 278 (0.4152 0.38527 0)
# Probe 279 (0.25835 0.45093 0)
# Probe 280 (0.28139 0.4291 0)
# Probe 281 (0.29622 0.64535 0)
# Probe 282 (0.31064 0.67822 0)
# Probe 283 (0.41133 0.58305 0)
# Probe 284 (0.49433 0.59977 0)
# Probe 285 (0.24961 0.42481 0)
# Probe 286 (0.26752 0.40352 0)
# Probe 287 (0.41154 0.35484 0)
# Probe 288 (0.33173 0.51868 0)
# Probe 289 (0.25533 0.52501 0)
# Probe 290 (0.43949 0.43289 0)
# Probe 291 (0.59313 0.44047 0)
# Probe 292 (0.27372 0.67179 0)
# Probe 293 (0.28778 0.70644 0)
# Probe 294 (0.2396 0.39815 0)
# Probe 295 (0.25822 0.37646 0)
# Probe 296 (0.62423 0.55252 0)
# Probe 297 (0.314 0.464 0)
# Probe 298 (0.28555 0.38155 0)
# Probe 299 (0.27793 0.35445 0)
# Probe 300 (0.24949 0.34906 0)
# Probe 301 (0.27021 0.32674 0)
# Probe 302 (0.44003 0.28691 0)
# Probe 303 (0.42203 0.31366 0)
# Probe 304 (0.24019 0.32038 0)
# Probe 305 (0.26118 0.29862 0)
# Probe 306 (0.4552 0.27269 0)
# Probe 307 (0.47366 0.26203 0)
# Probe 308 (0.29116 0.30493 0)
# Probe 309 (0.28312 0.2764 0)
# Probe 310 (0.25253 0.26888 0)
# Probe 311 (0.27497 0.24728 0)
# Probe 312 (0.30471 0.25498 0)
# Probe 313 (0.24393 0.23779 0)
# Probe 314 (0.78156 0.4453 0)
# Probe 315 (0.72192 0.41815 0)
# Probe 316 (0.29728 0.22643 0)
# Probe 317 (0.32538 0.23481 0)
# Probe 318 (0.76967 0.20083 0)
# Probe 319 (0.31867 0.20636 0)
# Probe 320 (0.34616 0.2147 0)
# Probe 321 (0.22988 0.44711 0)
# Probe 322 (0.25046 0.70078 0)
# Probe 323 (0.2374 0.6655 0)
# Probe 324 (0.26424 0.73622 0)
# Probe 325 (0.30239 0.74144 0)
# Probe 326 (0.65216 0.51533 0)
# Probe 327 (0.69555 0.45637 0)
# Probe 328 (0.33996 0.1864 0)
# Probe 329 (0.367 0.19516 0)
# Probe 330 (0.33179 0.26239 0)
# Probe 331 (0.27867 0.77252 0)
# Probe 332 (0.31738 0.77723 0)
# Probe 333 (0.23967 0.76747 0)
# Probe 334 (0.37276 0.22151 0)
# Probe 335 (0.39275 0.20343 0)
# Probe 336 (0.22077 0.26058 0)
# Probe 337 (0.21124 0.22813 0)
# Probe 338 (0.64932 0.15204 0)
# Probe 339 (0.63653 0.17736 0)
# Probe 340 (0.62169 0.15539 0)
# Probe 341 (0.611 0.17913 0)
# Probe 342 (0.59565 0.15848 0)
# Probe 343 (0.62425 0.202 0)
# Probe 344 (0.58589 0.18459 0)
# Probe 345 (0.57027 0.1612 0)
# Probe 346 (0.54808 0.6819 0)
# Probe 347 (0.55922 0.18684 0)
# Probe 348 (0.54571 0.16387 0)
# Probe 349 (0.57696 0.6864 0)
# Probe 350 (0.55846 0.70992 0)
# Probe 351 (0.58903 0.71451 0)
# Probe 352 (0.56946 0.73972 0)
# Probe 353 (0.60191 0.74457 0)
# Probe 354 (0.58115 0.771 0)
# Probe 355 (0.54726 0.76538 0)
# Probe 356 (0.61521 0.77589 0)
# Probe 357 (0.63627 0.74846 0)
# Probe 358 (0.65036 0.78072 0)
# Probe 359 (0.67258 0.7519 0)
# Probe 360 (0.6859 0.78637 0)
# Probe 361 (0.70945 0.75598 0)
# Probe 362 (0.72378 0.79225 0)
# Probe 363 (0.74794 0.76016 0)
# Probe 364 (0.73235 0.72411 0)
# Probe 365 (0.77099 0.72849 0)
# Probe 366 (0.75622 0.693 0)
# Probe 367 (0.76429 0.79684 0)
# Probe 368 (0.23631 0.20379 0)
# Probe 369 (0.20151 0.1932 0)
# Probe 370 (0.21258 0.69506 0)
# Probe 371 (0.53548 0.18544 0)
# Probe 372 (0.52167 0.16542 0)
# Probe 373 (0.51181 0.18691 0)
# Probe 374 (0.4975 0.16715 0)
# Probe 375 (0.48811 0.19279 0)
# Probe 376 (0.47291 0.1696 0)
# Probe 377 (0.38553 0.17552 0)
# Probe 378 (0.50796 0.14399 0)
# Probe 379 (0.21903 0.34336 0)
# Probe 380 (0.80666 0.37487 0)
# Probe 381 (0.81908 0.40312 0)
# Probe 382 (0.19875 0.65775 0)
# Probe 383 (0.79354 0.69722 0)
# Probe 384 (0.77827 0.66289 0)
# Probe 385 (0.80995 0.73274 0)
# Probe 386 (0.55945 0.79848 0)
# Probe 387 (0.52381 0.79347 0)
# Probe 388 (0.62769 0.80949 0)
# Probe 389 (0.25386 0.80475 0)
# Probe 390 (0.2133 0.80003 0)
# Probe 391 (0.30346 0.36091 0)
# Probe 392 (0.1866 0.25359 0)
# Probe 393 (0.3108 0.38502 0)
# Probe 394 (0.32619 0.36803 0)
# Probe 395 (0.33374 0.38765 0)
# Probe 396 (0.34729 0.37258 0)
# Probe 397 (0.35399 0.39023 0)
# Probe 398 (0.34035 0.35215 0)
# Probe 399 (0.39673 0.22816 0)
# Probe 400 (0.79839 0.25 0)
# Probe 401 (0.81472 0.27721 0)
# Probe 402 (0.81581 0.66668 0)
# Probe 403 (0.80051 0.63261 0)
# Probe 404 (0.3125 0.17638 0)
# Probe 405 (0.33445 0.15502 0)
# Probe 406 (0.17428 0.68849 0)
# Probe 407 (0.83791 0.63631 0)
# Probe 408 (0.82271 0.60245 0)
# Probe 409 (0.34058 0.74648 0)
# Probe 410 (0.35586 0.78161 0)
# Probe 411 (0.53726 0.8286 0)
# Probe 412 (0.49892 0.82225 0)
# Probe 413 (0.48892 0.78787 0)
# Probe 414 (0.55571 0.13984 0)
# Probe 415 (0.83143 0.24777 0)
# Probe 416 (0.84925 0.2788 0)
# Probe 417 (0.57304 0.204 0)
# Probe 418 (0.73855 0.83027 0)
# Probe 419 (0.33261 0.81364 0)
# Probe 420 (0.37237 0.81779 0)
# Probe 421 (0.83797 0.37625 0)
# Probe 422 (0.85157 0.40791 0)
# Probe 423 (0.37812 0.75081 0)
# Probe 424 (0.36594 0.377 0)
# Probe 425 (0.37232 0.3933 0)
# Probe 426 (0.36096 0.40684 0)
# Probe 427 (0.3782 0.40966 0)
# Probe 428 (0.36787 0.42275 0)
# Probe 429 (0.38434 0.42504 0)
# Probe 430 (0.37491 0.43814 0)
# Probe 431 (0.39073 0.44021 0)
# Probe 432 (0.38107 0.45392 0)
# Probe 433 (0.3974 0.45612 0)
# Probe 434 (0.38701 0.47019 0)
# Probe 435 (0.40407 0.47258 0)
# Probe 436 (0.39318 0.48674 0)
# Probe 437 (0.4111 0.48927 0)
# Probe 438 (0.39942 0.50407 0)
# Probe 439 (0.41838 0.50628 0)
# Probe 440 (0.42909 0.49186 0)
# Probe 441 (0.4364 0.50817 0)
# Probe 442 (0.44668 0.4944 0)
# Probe 443 (0.45379 0.51017 0)
# Probe 444 (0.44375 0.52434 0)
# Probe 445 (0.46138 0.52599 0)
# Probe 446 (0.47137 0.51046 0)
# Probe 447 (0.47878 0.52708 0)
# Probe 448 (0.48822 0.51415 0)
# Probe 449 (0.49559 0.52846 0)
# Probe 450 (0.50508 0.51435 0)
# Probe 451 (0.51227 0.52943 0)
# Probe 452 (0.52186 0.51578 0)
# Probe 453 (0.52888 0.53066 0)
# Probe 454 (0.5384 0.51701 0)
# Probe 455 (0.54651 0.53252 0)
# Probe 456 (0.55601 0.51872 0)
# Probe 457 (0.53615 0.54736 0)
# Probe 458 (0.55517 0.54913 0)
# Probe 459 (0.46939 0.54187 0)
# Probe 460 (0.23026 0.16622 0)
# Probe 461 (0.63133 0.12902 0)
# Probe 462 (0.85985 0.60581 0)
# Probe 463 (0.84085 0.5675 0)
# Probe 464 (0.78558 0.60012 0)
# Probe 465 (0.46302 0.19186 0)
# Probe 466 (0.78106 0.83544 0)
# Probe 467 (0.77153 0.12016 0)
# Probe 468 (0.27518 0.58506 0)
# Probe 469 (0.40698 0.52207 0)
# Probe 470 (0.30395 0.14435 0)
# Probe 471 (0.32866 0.12108 0)
# Probe 472 (0.74198 0.65879 0)
# Probe 473 (0.65483 0.72181 0)
# Probe 474 (0.19186 0.15625 0)
# Probe 475 (0.16348 0.18377 0)
# Probe 476 (0.5034 0.54377 0)
# Probe 477 (0.15999 0.65083 0)
# Probe 478 (0.18519 0.62006 0)
# Probe 479 (0.12823 0.68188 0)
# Probe 480 (0.53077 0.5027 0)
# Probe 481 (0.14664 0.61296 0)
# Probe 482 (0.17198 0.58309 0)
# Probe 483 (0.13293 0.57568 0)
# Probe 484 (0.15859 0.54571 0)
# Probe 485 (0.75486 0.86962 0)
# Probe 486 (0.22829 0.83819 0)
# Probe 487 (0.18586 0.83331 0)
# Probe 488 (0.16978 0.7926 0)
# Probe 489 (0.36959 0.46511 0)
# Probe 490 (0.35098 0.42061 0)
# Probe 491 (0.52449 0.20494 0)
# Probe 492 (0.54385 0.56525 0)
# Probe 493 (0.49707 0.50047 0)
# Probe 494 (0.15252 0.14454 0)
# Probe 495 (0.38103 0.24411 0)
# Probe 496 (0.40194 0.2493 0)
# Probe 497 (0.38776 0.26353 0)
# Probe 498 (0.41689 0.23307 0)
# Probe 499 (0.84895 0.66794 0)
# Probe 500 (0.47498 0.21181 0)
# Probe 501 (0.4148 0.45863 0)
# Probe 502 (0.71157 0.86346 0)
# Probe 503 (0.43981 0.47912 0)
# Probe 504 (0.45554 0.48162 0)
# Probe 505 (0.40588 0.26822 0)
# Probe 506 (0.39304 0.28018 0)
# Probe 507 (0.39381 0.41209 0)
# Probe 508 (0.34864 0.85046 0)
# Probe 509 (0.38966 0.85458 0)
# Probe 510 (0.38461 0.38233 0)
# Probe 511 (0.37786 0.3657 0)
# Probe 512 (0.72579 0.36973 0)
# Probe 513 (0.71513 0.34786 0)
# Probe 514 (0.70354 0.36618 0)
# Probe 515 (0.69421 0.34799 0)
# Probe 516 (0.68372 0.364 0)
# Probe 517 (0.6727 0.34879 0)
# Probe 518 (0.68395 0.3324 0)
# Probe 519 (0.66613 0.33242 0)
# Probe 520 (0.67496 0.31765 0)
# Probe 521 (0.65825 0.3187 0)
# Probe 522 (0.66623 0.3037 0)
# Probe 523 (0.68413 0.3026 0)
# Probe 524 (0.67457 0.28716 0)
# Probe 525 (0.65432 0.28971 0)
# Probe 526 (0.66444 0.272 0)
# Probe 527 (0.64588 0.27247 0)
# Probe 528 (0.6548 0.25644 0)
# Probe 529 (0.63687 0.2579 0)
# Probe 530 (0.66569 0.36442 0)
# Probe 531 (0.67342 0.37823 0)
# Probe 532 (0.69379 0.28601 0)
# Probe 533 (0.62889 0.27245 0)
# Probe 534 (0.62026 0.25945 0)
# Probe 535 (0.65718 0.37651 0)
# Probe 536 (0.66347 0.39101 0)
# Probe 537 (0.67974 0.3932 0)
# Probe 538 (0.66955 0.40594 0)
# Probe 539 (0.65152 0.40406 0)
# Probe 540 (0.65969 0.41873 0)
# Probe 541 (0.64383 0.41765 0)
# Probe 542 (0.65043 0.43146 0)
# Probe 543 (0.51227 0.85936 0)
# Probe 544 (0.38629 0.51936 0)
# Probe 545 (0.22146 0.12733 0)
# Probe 546 (0.55272 0.86553 0)
# Probe 547 (0.56411 0.56699 0)
# Probe 548 (0.3943 0.53931 0)
# Probe 549 (0.44831 0.16998 0)
# Probe 550 (0.45853 0.14604 0)
# Probe 551 (0.64472 0.23896 0)
# Probe 552 (0.86993 0.24802 0)
# Probe 553 (0.84854 0.21532 0)
# Probe 554 (0.88916 0.2809 0)
# Probe 555 (0.11928 0.53813 0)
# Probe 556 (0.14567 0.50856 0)
# Probe 557 (0.14172 0.82754 0)
# Probe 558 (0.37503 0.27748 0)
# Probe 559 (0.38308 0.29492 0)
# Probe 560 (0.41458 0.33336 0)
# Probe 561 (0.36158 0.29094 0)
# Probe 562 (0.36794 0.30937 0)
# Probe 563 (0.34882 0.30533 0)
# Probe 564 (0.38596 0.31322 0)
# Probe 565 (0.37294 0.32632 0)
# Probe 566 (0.3636 0.71722 0)
# Probe 567 (0.63546 0.42885 0)
# Probe 568 (0.64096 0.4426 0)
# Probe 569 (0.62427 0.43896 0)
# Probe 570 (0.63083 0.45441 0)
# Probe 571 (0.64699 0.45671 0)
# Probe 572 (0.6371 0.46906 0)
# Probe 573 (0.62099 0.46664 0)
# Probe 574 (0.62784 0.48169 0)
# Probe 575 (0.61071 0.47894 0)
# Probe 576 (0.6172 0.49454 0)
# Probe 577 (0.60038 0.49122 0)
# Probe 578 (0.60565 0.50739 0)
# Probe 579 (0.57842 0.54969 0)
# Probe 580 (0.67707 0.42107 0)
# Probe 581 (0.5949 0.47659 0)
# Probe 582 (0.58496 0.48799 0)
# Probe 583 (0.40968 0.28375 0)
# Probe 584 (0.18322 0.51587 0)
# Probe 585 (0.40012 0.72147 0)
# Probe 586 (0.1708 0.47991 0)
# Probe 587 (0.13341 0.47208 0)
# Probe 588 (0.15945 0.44328 0)
# Probe 589 (0.12196 0.43522 0)
# Probe 590 (0.14647 0.40668 0)
# Probe 591 (0.10962 0.39815 0)
# Probe 592 (0.136 0.36871 0)
# Probe 593 (0.87209 0.37883 0)
# Probe 594 (0.88741 0.41158 0)
# Probe 595 (0.86519 0.44168 0)
# Probe 596 (0.90317 0.44635 0)
# Probe 597 (0.87945 0.47644 0)
# Probe 598 (0.12287 0.1743 0)
# Probe 599 (0.65387 0.47196 0)
# Probe 600 (0.41446 0.75479 0)
# Probe 601 (0.43558 0.72617 0)
# Probe 602 (0.8828 0.57479 0)
# Probe 603 (0.36877 0.53562 0)
# Probe 604 (0.66938 0.08619 0)
# Probe 605 (0.43119 0.14696 0)
# Probe 606 (0.44108 0.11832 0)
# Probe 607 (0.4115 0.12332 0)
# Probe 608 (0.84283 0.47163 0)
# Probe 609 (0.4542 0.21236 0)
# Probe 610 (0.46654 0.22939 0)
# Probe 611 (0.48334 0.22739 0)
# Probe 612 (0.32103 0.40702 0)
# Probe 613 (0.41371 0.82145 0)
# Probe 614 (0.43219 0.85526 0)
# Probe 615 (0.41523 0.88825 0)
# Probe 616 (0.89958 0.61128 0)
# Probe 617 (0.13452 0.21375 0)
# Probe 618 (0.41452 0.54039 0)
# Probe 619 (0.60585 0.69049 0)
# Probe 620 (0.80668 0.80086 0)
# Probe 621 (0.82438 0.84104 0)
# Probe 622 (0.85099 0.80568 0)
# Probe 623 (0.86909 0.8468 0)
# Probe 624 (0.83068 0.31279 0)
# Probe 625 (0.65079 0.33222 0)
# Probe 626 (0.64218 0.32013 0)
# Probe 627 (0.52959 0.70457 0)
# Probe 628 (0.30811 0.84656 0)
# Probe 629 (0.16134 0.87016 0)
# Probe 630 (0.52713 0.89568 0)
# Probe 631 (0.20909 0.31344 0)
# Probe 632 (0.39271 0.36971 0)
# Probe 633 (0.39009 0.35639 0)
# Probe 634 (0.20923 0.59055 0)
# Probe 635 (0.65085 0.36401 0)
# Probe 636 (0.88803 0.21483 0)
# Probe 637 (0.86633 0.181 0)
# Probe 638 (0.42353 0.27447 0)
# Probe 639 (0.12001 0.77975 0)
# Probe 640 (0.39176 0.32852 0)
# Probe 641 (0.85618 0.50552 0)
# Probe 642 (0.82175 0.49849 0)
# Probe 643 (0.29328 0.11043 0)
# Probe 644 (0.32046 0.08541 0)
# Probe 645 (0.09243 0.56986 0)
# Probe 646 (0.58011 0.47466 0)
# Probe 647 (0.57072 0.48509 0)
# Probe 648 (0.57438 0.49928 0)
# Probe 649 (0.82749 0.18202 0)
# Probe 650 (0.84485 0.14691 0)
# Probe 651 (0.38088 0.5576 0)
# Probe 652 (0.56562 0.47129 0)
# Probe 653 (0.55725 0.48205 0)
# Probe 654 (0.72793 0.903 0)
# Probe 655 (0.58549 0.56911 0)
# Probe 656 (0.44906 0.46898 0)
# Probe 657 (0.46162 0.47005 0)
# Probe 658 (0.46956 0.48202 0)
# Probe 659 (0.67366 0.25512 0)
# Probe 660 (0.52551 0.56233 0)
# Probe 661 (0.53192 0.58186 0)
# Probe 662 (0.18449 0.41532 0)
# Probe 663 (0.63122 0.41671 0)
# Probe 664 (0.3545 0.09722 0)
# Probe 665 (0.61226 0.27381 0)
# Probe 666 (0.60513 0.26077 0)
# Probe 667 (0.61135 0.24675 0)
# Probe 668 (0.59599 0.24838 0)
# Probe 669 (0.60222 0.23399 0)
# Probe 670 (0.58674 0.23583 0)
# Probe 671 (0.6174 0.23272 0)
# Probe 672 (0.62168 0.28523 0)
# Probe 673 (0.37435 0.35084 0)
# Probe 674 (0.70243 0.3044 0)
# Probe 675 (0.18731 0.33978 0)
# Probe 676 (0.17673 0.30974 0)
# Probe 677 (0.48553 0.89029 0)
# Probe 678 (0.90698 0.1794 0)
# Probe 679 (0.39878 0.31615 0)
# Probe 680 (0.32546 0.88379 0)
# Probe 681 (0.28109 0.88017 0)
# Probe 682 (0.09568 0.82289 0)
# Probe 683 (0.89213 0.51056 0)
# Probe 684 (0.18744 0.72564 0)
# Probe 685 (0.43493 0.46676 0)
# Probe 686 (0.4478 0.23116 0)
# Probe 687 (0.45773 0.24636 0)
# Probe 688 (0.44007 0.24825 0)
# Probe 689 (0.47848 0.12118 0)
# Probe 690 (0.84075 0.88124 0)
# Probe 691 (0.88356 0.88808 0)
# Probe 692 (0.11321 0.13174 0)
# Probe 693 (0.59274 0.22087 0)
# Probe 694 (0.66252 0.45638 0)
# Probe 695 (0.50553 0.20818 0)
# Probe 696 (0.51698 0.22245 0)
# Probe 697 (0.53377 0.22067 0)
# Probe 698 (0.39846 0.38177 0)
# Probe 699 (0.59038 0.26227 0)
# Probe 700 (0.64388 0.37439 0)
# Probe 701 (0.45626 0.09058 0)
# Probe 702 (0.49308 0.08762 0)
# Probe 703 (0.58957 0.46469 0)
# Probe 704 (0.92161 0.57891 0)
# Probe 705 (0.52588 0.23461 0)
# Probe 706 (0.5413 0.23461 0)
# Probe 707 (0.55008 0.22056 0)
# Probe 708 (0.55646 0.23479 0)
# Probe 709 (0.62271 0.51048 0)
# Probe 710 (0.61064 0.52428 0)
# Probe 711 (0.5933 0.52087 0)
# Probe 712 (0.71075 0.38556 0)
# Probe 713 (0.09217 0.36416 0)
# Probe 714 (0.11742 0.32809 0)
# Probe 715 (0.07303 0.3966 0)
# Probe 716 (0.07868 0.52951 0)
# Probe 717 (0.43325 0.21707 0)
# Probe 718 (0.68321 0.89503 0)
# Probe 719 (0.66949 0.85626 0)
# Probe 720 (0.64045 0.8884 0)
# Probe 721 (0.77009 0.9114 0)
# Probe 722 (0.14085 0.10113 0)
# Probe 723 (0.4746 0.24254 0)
# Probe 724 (0.21124 0.48291 0)
# Probe 725 (0.39872 0.30413 0)
# Probe 726 (0.71325 0.28591 0)
# Probe 727 (0.70285 0.26782 0)
# Probe 728 (0.62999 0.52817 0)
# Probe 729 (0.94472 0.60968 0)
# Probe 730 (0.59741 0.53827 0)
# Probe 731 (0.20289 0.36548 0)
# Probe 732 (0.85608 0.34692 0)
# Probe 733 (0.89174 0.34853 0)
# Probe 734 (0.65596 0.34472 0)
# Probe 735 (0.6449 0.34264 0)
# Probe 736 (0.41194 0.18718 0)
# Probe 737 (0.46706 0.0611 0)
# Probe 738 (0.5067 0.05764 0)
# Probe 739 (0.52724 0.08687 0)
# Probe 740 (0.38954 0.68981 0)
# Probe 741 (0.40437 0.37254 0)
# Probe 742 (0.67185 0.47626 0)
# Probe 743 (0.60905 0.28626 0)
# Probe 744 (0.26331 0.18125 0)
# Probe 745 (0.89769 0.81069 0)
# Probe 746 (0.87801 0.76899 0)
# Probe 747 (0.92323 0.77259 0)
# Probe 748 (0.90337 0.73265 0)
# Probe 749 (0.36645 0.51381 0)
# Probe 750 (0.38815 0.39831 0)
# Probe 751 (0.40156 0.40162 0)
# Probe 752 (0.40723 0.41354 0)
# Probe 753 (0.42313 0.29016 0)
# Probe 754 (0.41418 0.29917 0)
# Probe 755 (0.35466 0.2443 0)
# Probe 756 (0.50965 0.57715 0)
# Probe 757 (0.5186 0.60213 0)
# Probe 758 (0.48664 0.57808 0)
# Probe 759 (0.54117 0.60163 0)
# Probe 760 (0.47041 0.59601 0)
# Probe 761 (0.46449 0.57409 0)
# Probe 762 (0.44776 0.59023 0)
# Probe 763 (0.44391 0.56831 0)
# Probe 764 (0.35109 0.05656 0)
# Probe 765 (0.62326 0.42418 0)
# Probe 766 (0.65537 0.49092 0)
# Probe 767 (0.31425 0.28512 0)
# Probe 768 (0.31727 0.3125 0)
# Probe 769 (0.64916 0.19922 0)
# Probe 770 (0.67339 0.20008 0)
# Probe 771 (0.72969 0.32702 0)
# Probe 772 (0.42121 0.47431 0)
# Probe 773 (0.26495 0.14032 0)
# Probe 774 (0.25252 0.10188 0)
# Probe 775 (0.60479 0.4654 0)
# Probe 776 (0.44878 0.75663 0)
# Probe 777 (0.46925 0.7286 0)
# Probe 778 (0.45443 0.69692 0)
# Probe 779 (0.30065 0.33476 0)
# Probe 780 (0.637 0.28607 0)
# Probe 781 (0.62976 0.29639 0)
# Probe 782 (0.42228 0.25334 0)
# Probe 783 (0.2122 0.08256 0)
# Probe 784 (0.32626 0.49196 0)
# Probe 785 (0.33856 0.46834 0)
# Probe 786 (0.33002 0.44717 0)
# Probe 787 (0.30702 0.44066 0)
# Probe 788 (0.34706 0.48831 0)
# Probe 789 (0.43523 0.26337 0)
# Probe 790 (0.3516 0.67961 0)
# Probe 791 (0.70884 0.43763 0)
# Probe 792 (0.69856 0.41745 0)
# Probe 793 (0.56631 0.90267 0)
# Probe 794 (0.6133 0.45131 0)
# Probe 795 (0.61109 0.43891 0)
# Probe 796 (0.64828 0.38862 0)
# Probe 797 (0.63859 0.39838 0)
# Probe 798 (0.80393 0.14931 0)
# Probe 799 (0.82244 0.11313 0)
# Probe 800 (0.86448 0.11052 0)
# Probe 801 (0.77168 0.15432 0)
# Probe 802 (0.51474 0.50176 0)
# Probe 803 (0.52419 0.48965 0)
# Probe 804 (0.53774 0.49004 0)
# Probe 805 (0.53101 0.47801 0)
# Probe 806 (0.51 0.48867 0)
# Probe 807 (0.49707 0.48661 0)
# Probe 808 (0.48615 0.49396 0)
# Probe 809 (0.66151 0.22215 0)
# Probe 810 (0.21917 0.52031 0)
# Probe 811 (0.09753 0.46391 0)
# Probe 812 (0.59701 0.86838 0)
# Probe 813 (0.39953 0.42629 0)
# Probe 814 (0.41221 0.42534 0)
# Probe 815 (0.40799 0.44096 0)
# Probe 816 (0.42264 0.44482 0)
# Probe 817 (0.34353 0.54021 0)
# Probe 818 (0.0856 0.20669 0)
# Probe 819 (0.10563 0.24953 0)
# Probe 820 (0.85661 0.73317 0)
# Probe 821 (0.35146 0.45375 0)
# Probe 822 (0.45643 0.81607 0)
# Probe 823 (0.56459 0.22142 0)
# Probe 824 (0.63496 0.38535 0)
# Probe 825 (0.64172 0.29782 0)
# Probe 826 (0.4226 0.6932 0)
# Probe 827 (0.51118 0.23826 0)
# Probe 828 (0.41244 0.40311 0)
# Probe 829 (0.20168 0.55066 0)
# Probe 830 (0.23448 0.56471 0)
# Probe 831 (0.04356 0.57453 0)
# Probe 832 (0.54768 0.50331 0)
# Probe 833 (0.7637 0.62964 0)
# Probe 834 (0.7289 0.62656 0)
# Probe 835 (0.70853 0.65386 0)
# Probe 836 (0.69744 0.62343 0)
# Probe 837 (0.71659 0.59736 0)
# Probe 838 (0.67274 0.64494 0)
# Probe 839 (0.68778 0.67864 0)
# Probe 840 (0.65415 0.6715 0)
# Probe 841 (0.68951 0.59344 0)
# Probe 842 (0.75039 0.59822 0)
# Probe 843 (0.77043 0.56993 0)
# Probe 844 (0.7385 0.56905 0)
# Probe 845 (0.75572 0.54345 0)
# Probe 846 (0.78596 0.54393 0)
# Probe 847 (0.76641 0.51223 0)
# Probe 848 (0.72891 0.54509 0)
# Probe 849 (0.92708 0.41437 0)
# Probe 850 (0.94484 0.44986 0)
# Probe 851 (0.59598 0.45247 0)
# Probe 852 (0.95297 0.17713 0)
# Probe 853 (0.7328 0.39484 0)
# Probe 854 (0.22686 0.03828 0)
# Probe 855 (0.47382 0.4576 0)
# Probe 856 (0.4935 0.46514 0)
# Probe 857 (0.48515 0.47199 0)
# Probe 858 (0.5041 0.46721 0)
# Probe 859 (0.44716 0.44035 0)
# Probe 860 (0.44484 0.45047 0)
# Probe 861 (0.41613 0.08317 0)
# Probe 862 (0.55645 0.46255 0)
# Probe 863 (0.54831 0.24706 0)
# Probe 864 (0.56485 0.24932 0)
# Probe 865 (0.4331 0.42428 0)
# Probe 866 (0.56634 0.45797 0)
# Probe 867 (0.46451 0.45252 0)
# Probe 868 (0.63874 0.49802 0)
# Probe 869 (0.61335 0.41728 0)
# Probe 870 (0.60203 0.43281 0)
# Probe 871 (0.22242 0.62788 0)
# Probe 872 (0.58538 0.27269 0)
# Probe 873 (0.58056 0.24832 0)
# Probe 874 (0.03904 0.27419 0)
# Probe 875 (0.08101 0.2911 0)
# Probe 876 (0.61756 0.40637 0)
# Probe 877 (0.61773 0.3138 0)
# Probe 878 (0.62741 0.34344 0)
# Probe 879 (0.62802 0.35473 0)
# Probe 880 (0.62671 0.37626 0)
# Probe 881 (0.55542 0.25761 0)
# Probe 882 (0.57652 0.26714 0)
# Probe 883 (0.68219 0.04443 0)
# Probe 884 (0.64148 0.05549 0)
# Probe 885 (0.62206 0.32315 0)
# Probe 886 (0.62888 0.31518 0)
# Probe 887 (0.5846 0.44697 0)
# Probe 888 (0.41785 0.32271 0)
# Probe 889 (0.42682 0.30262 0)
# Probe 890 (0.91861 0.65249 0)
# Probe 891 (0.44716 0.27953 0)
# Probe 892 (0.79445 0.08105 0)
# Probe 893 (0.50437 0.25197 0)
# Probe 894 (0.49738 0.243 0)
# Probe 895 (0.52564 0.25181 0)
# Probe 896 (0.4125 0.34396 0)
# Probe 897 (0.40192 0.34908 0)
# Probe 898 (0.52385 0.96066 0)
# Probe 899 (0.3261 0.71157 0)
# Probe 900 (0.6238 0.95739 0)
# Probe 901 (0.74383 0.9468 0)
# Probe 902 (0.29383 0.40722 0)
# Probe 903 (0.63828 0.21925 0)
# Probe 904 (0.32608 0.33354 0)
# Probe 905 (0.833 0.52924 0)
# Probe 906 (0.95367 0.72945 0)
# Probe 907 (0.8276 0.4377 0)
# Probe 908 (0.19618 0.4481 0)
# Probe 909 (0.3549 0.27011 0)
# Probe 910 (0.46178 0.49522 0)
# Probe 911 (0.48363 0.25835 0)
# Probe 912 (0.46413 0.2667 0)
# Probe 913 (0.45515 0.26139 0)
# Probe 914 (0.25988 0.63737 0)
# Probe 915 (0.04183 0.17927 0)
# Probe 916 (0.6029 0.20111 0)
# Probe 917 (0.43597 0.44304 0)
# Probe 918 (0.95317 0.3212 0)
# Probe 919 (0.95941 0.2721 0)
# Probe 920 (0.57189 0.58664 0)
# Probe 921 (0.91761 0.24932 0)
# Probe 922 (0.81266 0.46982 0)
# Probe 923 (0.36089 0.57617 0)
# Probe 924 (0.04229 0.67384 0)
# Probe 925 (0.08447 0.64814 0)
# Probe 926 (0.08338 0.70027 0)
# Probe 927 (0.11942 0.72662 0)
# Probe 928 (0.04127 0.72433 0)
# Probe 929 (0.09577 0.08563 0)
# Probe 930 (0.40328 0.33722 0)
# Probe 931 (0.5446 0.20287 0)
# Probe 932 (0.70565 0.32657 0)
# Probe 933 (0.42575 0.9608 0)
# Probe 934 (0.37569 0.96151 0)
# Probe 935 (0.27479 0.95811 0)
# Probe 936 (0.22549 0.95704 0)
# Probe 937 (0.20085 0.9121 0)
# Probe 938 (0.33692 0.28551 0)
# Probe 939 (0.69246 0.71651 0)
# Probe 940 (0.86973 0.04109 0)
# Probe 941 (0.14517 0.25478 0)
# Probe 942 (0.35487 0.32395 0)
# Probe 943 (0.13068 0.05017 0)
# Probe 944 (0.8028 0.57162 0)
# Probe 945 (0.24513 0.49658 0)
# Probe 946 (0.48338 0.69843 0)
# Probe 947 (0.50424 0.72529 0)
# Probe 948 (0.52523 0.46843 0)
# Probe 949 (0.68789 0.43736 0)
# Probe 950 (0.66775 0.4378 0)
# Probe 951 (0.5707 0.23644 0)
# Probe 952 (0.25382 0.91718 0)
# Probe 953 (0.53577 0.46744 0)
# Probe 954 (0.54445 0.47814 0)
# Probe 955 (0.04664 0.82395 0)
# Probe 956 (0.39408 0.78587 0)
# Probe 957 (0.95822 0.87385 0)
# Probe 958 (0.87502 0.95671 0)
# Probe 959 (0.12513 0.95745 0)
# Probe 960 (0.08939 0.90702 0)
# Probe 961 (0.38666 0.58094 0)
# Probe 962 (0.04173 0.42714 0)
# Probe 963 (0.60816 0.57293 0)
# Probe 964 (0.7213 0.68708 0)
# Probe 965 (0.35662 0.13391 0)
# Probe 966 (0.80743 0.21459 0)
# Probe 967 (0.63684 0.33492 0)
# Probe 968 (0.69872 0.8236 0)
# Probe 969 (0.57442 0.8322 0)
# Probe 970 (0.52 0.47758 0)
# Probe 971 (0.38528 0.65878 0)