# Probe 0 (0 0 0)
# Probe 1 (1 0 0)
# Probe 2 (1 1 0)
# Probe 3 (0 1 0)
# Probe 4 (0.64 0.29 0)
# Probe 5 (0.54 0.19 0)
# Probe 6 (0.44 0.29 0)
# Probe 7 (0.54 0.39 0)
# Probe 8 (0.05 0 0)
# Probe 9 (0.1 0 0)
# Probe 10 (0.15 0 0)
# Probe 11 (0.2 0 0)
# Probe 12 (0.25 0 0)
# Probe 13 (0.3 0 0)
# Probe 14 (0.35 0 0)
# Probe 15 (0.4 0 0)
# Probe 16 (0.45 0 0)
# Probe 17 (0.5 0 0)
# Probe 18 (0.55 0 0)
# Probe 19 (0.6 0 0)
# Probe 20 (0.65 0 0)
# Probe 21 (0.7 0 0)
# Probe 22 (0.75 0 0)
# Probe 23 (0.8 0 0)
# Probe 24 (0.85 0 0)
# Probe 25 (0.9 0 0)
# Probe 26 (0.95 0 0)
# Probe 27 (1 0.05 0)
# Probe 28 (1 0.1 0)
# Probe 29 (1 0.15 0)
# Probe 30 (1 0.2 0)
# Probe 31 (1 0.25 0)
# Probe 32 (1 0.3 0)
# Probe 33 (1 0.35 0)
# Probe 34 (1 0.4 0)
# Probe 35 (1 0.45 0)
# Probe 36 (1 0.5 0)
# Probe 37 (1 0.55 0)
# Probe 38 (1 0.6 0)
# Probe 39 (1 0.65 0)
# Probe 40 (1 0.7 0)
# Probe 41 (1 0.75 0)
# Probe 42 (1 0.8 0)
# Probe 43 (1 0.85 0)
# Probe 44 (1 0.9 0)
# Probe 45 (1 0.95 0)
# Probe 46 (0.95 1 0)
# Probe 47 (0.9 1 0)
# Probe 48 (0.85 1 0)
# Probe 49 (0.8 1 0)
# Probe 50 (0.75 1 0)
# Probe 51 (0.7 1 0)
# Probe 52 (0.65 1 0)
# Probe 53 (0.6 1 0)
# Probe 54 (0.55 1 0)
# Probe 55 (0.5 1 0)
# Probe 56 (0.45 1 0)
# Probe 57 (0.4 1 0)
# Probe 58 (0.35 1 0)
# Probe 59 (0.3 1 0)
# Probe 60 (0.25 1 0)
# Probe 61 (0.2 1 0)
# Probe 62 (0.15 1 0)
# Probe 63 (0.1 1 0)
# Probe 64 (0.05 1 0)
# Probe 65 (0 0.95 0)
# Probe 66 (0 0.9 0)
# Probe 67 (0 0.85 0)
# Probe 68 (0 0.8 0)
# Probe 69 (0 0.75 0)
# Probe 70 (0 0.7 0)
# Probe 71 (0 0.65 0)
# Probe 72 (0 0.6 0)
# Probe 73 (0 0.55 0)
# Probe 74 (0 0.5 0)
# Probe 75 (0 0.45 0)
# Probe 76 (0 0.4 0)
# Probe 77 (0 0.35 0)
# Probe 78 (0 0.3 0)
# Probe 79 (0 0.25 0)
# Probe 80 (0 0.2 0)
# Probe 81 (0 0.15 0)
# Probe 82 (0 0.1 0)
# Probe 83 (0 0.05 0)
# Probe 84 (0.63952 0.2802 0)
# Probe 85 (0.63808 0.27049 0)
# Probe 86 (0.63569 0.26097 0)
# Probe 87 (0.63239 0.25173 0)
# Probe 88 (0.62819 0.24286 0)
# Probe 89 (0.62315 0.23444 0)
# Probe 90 (0.6173 0.22656 0)
# Probe 91 (0.61071 0.21929 0)
# Probe 92 (0.60344 0.2127 0)
# Probe 93 (0.59556 0.20685 0)
# Probe 94 (0.58714 0.20181 0)
# Probe 95 (0.57827 0.19761 0)
# Probe 96 (0.56903 0.19431 0)
# Probe 97 (0.55951 0.19192 0)
# Probe 98 (0.5498 0.19048 0)
# Probe 99 (0.5302 0.19048 0)
# Probe 100 (0.52049 0.19192 0)
# Probe 101 (0.51097 0.19431 0)
# Probe 102 (0.50173 0.19761 0)
# Probe 103 (0.49286 0.20181 0)
# Probe 104 (0.48444 0.20685 0)
# Probe 105 (0.47656 0.2127 0)
# Probe 106 (0.46929 0.21929 0)
# Probe 107 (0.4627 0.22656 0)
# Probe 108 (0.45685 0.23444 0)
# Probe 109 (0.45181 0.24286 0)
# Probe 110 (0.44761 0.25173 0)
# Probe 111 (0.44431 0.26097 0)
# Probe 112 (0.44192 0.27049 0)
# Probe 113 (0.44048 0.2802 0)
# Probe 114 (0.44048 0.2998 0)
# Probe 115 (0.44192 0.30951 0)
# Probe 116 (0.44431 0.31903 0)
# Probe 117 (0.44761 0.32827 0)
# Probe 118 (0.45181 0.33714 0)
# Probe 119 (0.45685 0.34556 0)
# Probe 120 (0.4627 0.35344 0)
# Probe 121 (0.46929 0.36071 0)
# Probe 122 (0.47656 0.3673 0)
# Probe 123 (0.48444 0.37315 0)
# Probe 124 (0.49286 0.37819 0)
# Probe 125 (0.50173 0.38239 0)
# Probe 126 (0.51097 0.38569 0)
# Probe 127 (0.52049 0.38808 0)
# Probe 128 (0.5302 0.38952 0)
# Probe 129 (0.5498 0.38952 0)
# Probe 130 (0.55951 0.38808 0)
# Probe 131 (0.56903 0.38569 0)
# Probe 132 (0.57827 0.38239 0)
# Probe 133 (0.58714 0.37819 0)
# Probe 134 (0.59556 0.37315 0)
# Probe 135 (0.60344 0.3673 0)
# Probe 136 (0.61071 0.36071 0)
# Probe 137 (0.6173 0.35344 0)
# Probe 138 (0.62315 0.34556 0)
# Probe 139 (0.62819 0.33714 0)
# Probe 140 (0.63239 0.32827 0)
# Probe 141 (0.63569 0.31903 0)
# Probe 142 (0.63808 0.30951 0)
# Probe 143 (0.63952 0.2998 0)
# Probe 144 (0.37621 0.96598 0)
# Probe 145 (0.66606 0.95721 0)
# Probe 146 (0.0433 0.625 0)
# Probe 147 (0.95353 0.62729 0)
# Probe 148 (0.0433 0.475 0)
# Probe 149 (0.04197 0.22343 0)
# Probe 150 (0.95906 0.47154 0)
# Probe 151 (0.52716 0.95401 0)
# Probe 152 (0.27662 0.04658 0)
# Probe 153 (0.95573 0.22849 0)
# Probe 154 (0.58669 0.19169 0)
# Probe 155 (0.77597 0.04575 0)
# Probe 156 (0.22935 0.95748 0)
# Probe 157 (0.49377 0.19165 0)
# Probe 158 (0.95883 0.77285 0)
# Probe 159 (0.55663 0.18139 0)
# Probe 160 (0.52368 0.18153 0)
# Probe 161 (0.04452 0.77115 0)
# Probe 162 (0.37887 0.03842 0)
# Probe 163 (0.60573 0.20305 0)
# Probe 164 (0.47544 0.20295 0)
# Probe 165 (0.6793 0.03848 0)
# Probe 166 (0.82279 0.96058 0)
# Probe 167 (0.17688 0.04222 0)
# Probe 168 (0.95724 0.32012 0)
# Probe 169 (0.03869 0.32467 0)
# Probe 170 (0.475 0.0433 0)
# Probe 171 (0.04283 0.875 0)
# Probe 172 (0.875 0.04258 0)
# Probe 173 (0.5716 0.04142 0)
# Probe 174 (0.04173 0.12825 0)
# Probe 175 (0.94956 0.87355 0)
# Probe 176 (0.96247 0.12615 0)
# Probe 177 (0.12203 0.95595 0)
# Probe 178 (0.07747 0.04642 0)
# Probe 179 (0.92526 0.95762 0)
# Probe 180 (0.5334 0.03982 0)
# Probe 181 (0.50303 0.07816 0)
# Probe 182 (0.5527 0.07764 0)
# Probe 183 (0.58697 0.07913 0)
# Probe 184 (0.5712 0.10707 0)
# Probe 185 (0.59907 0.10916 0)
# Probe 186 (0.58293 0.13108 0)
# Probe 187 (0.60854 0.13683 0)
# Probe 188 (0.55916 0.13112 0)
# Probe 189 (0.62588 0.11336 0)
# Probe 190 (0.63589 0.13678 0)
# Probe 191 (0.65254 0.11659 0)
# Probe 192 (0.66261 0.14046 0)
# Probe 193 (0.62795 0.22495 0)
# Probe 194 (0.67876 0.12151 0)
# Probe 195 (0.68828 0.14642 0)
# Probe 196 (0.67182 0.16265 0)
# Probe 197 (0.69781 0.17133 0)
# Probe 198 (0.71489 0.15189 0)
# Probe 199 (0.72411 0.17713 0)
# Probe 200 (0.70327 0.19607 0)
# Probe 201 (0.73142 0.20332 0)
# Probe 202 (0.64825 0.27497 0)
# Probe 203 (0.64215 0.25352 0)
# Probe 204 (0.75097 0.18285 0)
# Probe 205 (0.75815 0.2099 0)
# Probe 206 (0.73898 0.22972 0)
# Probe 207 (0.76505 0.2367 0)
# Probe 208 (0.74156 0.25743 0)
# Probe 209 (0.77095 0.26331 0)
# Probe 210 (0.752 0.28189 0)
# Probe 211 (0.6449 0.31792 0)
# Probe 212 (0.77801 0.28923 0)
# Probe 213 (0.75951 0.30775 0)
# Probe 214 (0.78557 0.31552 0)
# Probe 215 (0.76625 0.33406 0)
# Probe 216 (0.79523 0.34293 0)
# Probe 217 (0.77364 0.36121 0)
# Probe 218 (0.63259 0.34609 0)
# Probe 219 (0.64821 0.29563 0)
# Probe 220 (0.74855 0.35328 0)
# Probe 221 (0.75324 0.37889 0)
# Probe 222 (0.77686 0.38647 0)
# Probe 223 (0.75723 0.40377 0)
# Probe 224 (0.7293 0.39298 0)
# Probe 225 (0.73506 0.41835 0)
# Probe 226 (0.61271 0.37059 0)
# Probe 227 (0.76124 0.42904 0)
# Probe 228 (0.73985 0.4445 0)
# Probe 229 (0.76582 0.45535 0)
# Probe 230 (0.74436 0.47208 0)
# Probe 231 (0.71937 0.46189 0)
# Probe 232 (0.72287 0.48841 0)
# Probe 233 (0.69452 0.47754 0)
# Probe 234 (0.70121 0.50427 0)
# Probe 235 (0.67645 0.49594 0)
# Probe 236 (0.68104 0.51996 0)
# Probe 237 (0.6576 0.5105 0)
# Probe 238 (0.66054 0.53571 0)
# Probe 239 (0.63838 0.5256 0)
# Probe 240 (0.63986 0.55135 0)
# Probe 241 (0.61712 0.54102 0)
# Probe 242 (0.61899 0.56751 0)
# Probe 243 (0.59513 0.55711 0)
# Probe 244 (0.59749 0.58411 0)
# Probe 245 (0.57315 0.57412 0)
# Probe 246 (0.62063 0.59097 0)
# Probe 247 (0.54532 0.39938 0)
# Probe 248 (0.57653 0.60146 0)
# Probe 249 (0.54917 0.59107 0)
# Probe 250 (0.55188 0.6197 0)
# Probe 251 (0.5242 0.60811 0)
# Probe 252 (0.57563 0.39316 0)
# Probe 253 (0.52075 0.57743 0)
# Probe 254 (0.49652 0.5957 0)
# Probe 255 (0.49262 0.56598 0)
# Probe 256 (0.46926 0.5833 0)
# Probe 257 (0.50354 0.39244 0)
# Probe 258 (0.46626 0.55438 0)
# Probe 259 (0.44244 0.57139 0)
# Probe 260 (0.43957 0.54262 0)
# Probe 261 (0.41487 0.56043 0)
# Probe 262 (0.41274 0.53027 0)
# Probe 263 (0.4187 0.58989 0)
# Probe 264 (0.47464 0.3754 0)
# Probe 265 (0.38824 0.54828 0)
# Probe 266 (0.38848 0.5141 0)
# Probe 267 (0.36274 0.53491 0)
# Probe 268 (0.35956 0.50551 0)
# Probe 269 (0.70526 0.53075 0)
# Probe 270 (0.52734 0.63885 0)
# Probe 271 (0.55807 0.65115 0)
# Probe 272 (0.33564 0.52364 0)
# Probe 273 (0.33308 0.494 0)
# Probe 274 (0.45336 0.35508 0)
# Probe 275 (0.33825 0.55378 0)
# Probe 276 (0.53056 0.67148 0)
# Probe 277 (0.56261 0.68423 0)
# Probe 278 (0.3094 0.54219 0)
# Probe 279 (0.31235 0.57373 0)
# Probe 280 (0.35589 0.47724 0)
# Probe 281 (0.3304 0.46534 0)
# Probe 282 (0.59668 0.52992 0)
# Probe 283 (0.48729 0.53816 0)
# Probe 284 (0.76988 0.4837 0)
# Probe 285 (0.35276 0.44913 0)
# Probe 286 (0.32793 0.43693 0)
# Probe 287 (0.30508 0.45316 0)
# Probe 288 (0.30331 0.42503 0)
# Probe 289 (0.32584 0.40933 0)
# Probe 290 (0.30198 0.39755 0)
# Probe 291 (0.43796 0.32651 0)
# Probe 292 (0.32765 0.38191 0)
# Probe 293 (0.30131 0.37099 0)
# Probe 294 (0.32262 0.35633 0)
# Probe 295 (0.43819 0.25356 0)
# Probe 296 (0.43153 0.28446 0)
# Probe 297 (0.30046 0.34543 0)
# Probe 298 (0.32078 0.33197 0)
# Probe 299 (0.29891 0.32045 0)
# Probe 300 (0.31953 0.30684 0)
# Probe 301 (0.297 0.29522 0)
# Probe 302 (0.3188 0.2802 0)
# Probe 303 (0.29399 0.26992 0)
# Probe 304 (0.31776 0.2529 0)
# Probe 305 (0.45338 0.22575 0)
# Probe 306 (0.27907 0.38524 0)
# Probe 307 (0.27649 0.31166 0)
# Probe 308 (0.53417 0.70456 0)
# Probe 309 (0.56633 0.72277 0)
# Probe 310 (0.28137 0.56077 0)
# Probe 311 (0.28505 0.59415 0)
# Probe 312 (0.59624 0.38296 0)
# Probe 313 (0.52406 0.397 0)
# Probe 314 (0.29063 0.24129 0)
# Probe 315 (0.43238 0.30573 0)
# Probe 316 (0.65324 0.48844 0)
# Probe 317 (0.34433 0.39664 0)
# Probe 318 (0.50238 0.6918 0)
# Probe 319 (0.50692 0.72712 0)
# Probe 320 (0.47302 0.71312 0)
# Probe 321 (0.47649 0.74865 0)
# Probe 322 (0.44242 0.73504 0)
# Probe 323 (0.3167 0.22345 0)
# Probe 324 (0.25332 0.57982 0)
# Probe 325 (0.25662 0.61526 0)
# Probe 326 (0.28869 0.62808 0)
# Probe 327 (0.26068 0.65218 0)
# Probe 328 (0.34464 0.34262 0)
# Probe 329 (0.77883 0.18949 0)
# Probe 330 (0.28904 0.20897 0)
# Probe 331 (0.2614 0.22891 0)
# Probe 332 (0.25064 0.54439 0)
# Probe 333 (0.59517 0.69741 0)
# Probe 334 (0.60046 0.73205 0)
# Probe 335 (0.62789 0.70987 0)
# Probe 336 (0.6345 0.74574 0)
# Probe 337 (0.6636 0.72256 0)
# Probe 338 (0.66983 0.76026 0)
# Probe 339 (0.70066 0.73543 0)
# Probe 340 (0.70657 0.7751 0)
# Probe 341 (0.73772 0.74982 0)
# Probe 342 (0.73168 0.70998 0)
# Probe 343 (0.37693 0.46076 0)
# Probe 344 (0.60532 0.76912 0)
# Probe 345 (0.43775 0.51469 0)
# Probe 346 (0.22091 0.56527 0)
# Probe 347 (0.21805 0.52854 0)
# Probe 348 (0.80734 0.29702 0)
# Probe 349 (0.76879 0.72403 0)
# Probe 350 (0.76241 0.68327 0)
# Probe 351 (0.77609 0.76443 0)
# Probe 352 (0.44748 0.77318 0)
# Probe 353 (0.4117 0.7581 0)
# Probe 354 (0.4889 0.78685 0)
# Probe 355 (0.79332 0.46494 0)
# Probe 356 (0.79793 0.49572 0)
# Probe 357 (0.69487 0.44891 0)
# Probe 358 (0.34068 0.29215 0)
# Probe 359 (0.73395 0.30159 0)
# Probe 360 (0.34495 0.23861 0)
# Probe 361 (0.34165 0.20909 0)
# Probe 362 (0.2593 0.19372 0)
# Probe 363 (0.23036 0.21406 0)
# Probe 364 (0.28871 0.17223 0)
# Probe 365 (0.27885 0.44085 0)
# Probe 366 (0.22756 0.6375 0)
# Probe 367 (0.23075 0.6754 0)
# Probe 368 (0.26617 0.69096 0)
# Probe 369 (0.23413 0.71512 0)
# Probe 370 (0.18712 0.55022 0)
# Probe 371 (0.18329 0.51325 0)
# Probe 372 (0.79957 0.69848 0)
# Probe 373 (0.79267 0.65693 0)
# Probe 374 (0.27148 0.73086 0)
# Probe 375 (0.23854 0.75621 0)
# Probe 376 (0.27701 0.77269 0)
# Probe 377 (0.675 0.8 0)
# Probe 378 (0.71299 0.81575 0)
# Probe 379 (0.36636 0.22051 0)
# Probe 380 (0.36478 0.19476 0)
# Probe 381 (0.19564 0.69761 0)
# Probe 382 (0.40778 0.71955 0)
# Probe 383 (0.71657 0.24699 0)
# Probe 384 (0.66426 0.56195 0)
# Probe 385 (0.41613 0.79759 0)
# Probe 386 (0.79168 0.24321 0)
# Probe 387 (0.72476 0.66966 0)
# Probe 388 (0.82316 0.47487 0)
# Probe 389 (0.82894 0.50725 0)
# Probe 390 (0.8021 0.52844 0)
# Probe 391 (0.83441 0.5407 0)
# Probe 392 (0.24328 0.79852 0)
# Probe 393 (0.28235 0.81412 0)
# Probe 394 (0.22828 0.179 0)
# Probe 395 (0.19712 0.19825 0)
# Probe 396 (0.20071 0.2358 0)
# Probe 397 (0.38602 0.20855 0)
# Probe 398 (0.38987 0.18432 0)
# Probe 399 (0.36396 0.16849 0)
# Probe 400 (0.38789 0.15539 0)
# Probe 401 (0.41136 0.16828 0)
# Probe 402 (0.41108 0.14223 0)
# Probe 403 (0.43321 0.15544 0)
# Probe 404 (0.20345 0.78151 0)
# Probe 405 (0.77078 0.15984 0)
# Probe 406 (0.80291 0.16792 0)
# Probe 407 (0.15194 0.5339 0)
# Probe 408 (0.15544 0.57343 0)
# Probe 409 (0.38813 0.23038 0)
# Probe 410 (0.36296 0.13957 0)
# Probe 411 (0.83156 0.67244 0)
# Probe 412 (0.83838 0.71377 0)
# Probe 413 (0.20818 0.82556 0)
# Probe 414 (0.47195 0.61362 0)
# Probe 415 (0.14902 0.49475 0)
# Probe 416 (0.18386 0.4742 0)
# Probe 417 (0.14729 0.45561 0)
# Probe 418 (0.17665 0.43421 0)
# Probe 419 (0.14439 0.41654 0)
# Probe 420 (0.17567 0.39558 0)
# Probe 421 (0.4341 0.12878 0)
# Probe 422 (0.4536 0.14452 0)
# Probe 423 (0.16642 0.21994 0)
# Probe 424 (0.17025 0.25823 0)
# Probe 425 (0.162 0.1853 0)
# Probe 426 (0.14158 0.37821 0)
# Probe 427 (0.34036 0.58599 0)
# Probe 428 (0.16713 0.8077 0)
# Probe 429 (0.81709 0.44342 0)
# Probe 430 (0.84909 0.45375 0)
# Probe 431 (0.8425 0.4199 0)
# Probe 432 (0.40491 0.22036 0)
# Probe 433 (0.43136 0.17805 0)
# Probe 434 (0.17347 0.35709 0)
# Probe 435 (0.13924 0.33961 0)
# Probe 436 (0.62188 0.15515 0)
# Probe 437 (0.30404 0.70788 0)
# Probe 438 (0.80693 0.56221 0)
# Probe 439 (0.83989 0.57587 0)
# Probe 440 (0.86951 0.55318 0)
# Probe 441 (0.67989 0.84144 0)
# Probe 442 (0.71953 0.85796 0)
# Probe 443 (0.11868 0.55628 0)
# Probe 444 (0.87828 0.43209 0)
# Probe 445 (0.86905 0.3963 0)
# Probe 446 (0.87158 0.68672 0)
# Probe 447 (0.79243 0.13593 0)
# Probe 448 (0.82747 0.14243 0)
# Probe 449 (0.83765 0.1781 0)
# Probe 450 (0.37405 0.43484 0)
# Probe 451 (0.39577 0.44481 0)
# Probe 452 (0.39415 0.42215 0)
# Probe 453 (0.41299 0.431 0)
# Probe 454 (0.41101 0.4113 0)
# Probe 455 (0.42847 0.41933 0)
# Probe 456 (0.4311 0.43817 0)
# Probe 457 (0.44695 0.42412 0)
# Probe 458 (0.44895 0.44394 0)
# Probe 459 (0.46335 0.43319 0)
# Probe 460 (0.46578 0.45095 0)
# Probe 461 (0.47951 0.44015 0)
# Probe 462 (0.48243 0.45744 0)
# Probe 463 (0.49605 0.44678 0)
# Probe 464 (0.49889 0.46447 0)
# Probe 465 (0.51347 0.4533 0)
# Probe 466 (0.51576 0.47128 0)
# Probe 467 (0.53067 0.45985 0)
# Probe 468 (0.53274 0.47817 0)
# Probe 469 (0.54727 0.4665 0)
# Probe 470 (0.42647 0.40111 0)
# Probe 471 (0.41105 0.39323 0)
# Probe 472 (0.54507 0.44872 0)
# Probe 473 (0.5612 0.45491 0)
# Probe 474 (0.55852 0.43824 0)
# Probe 475 (0.57419 0.4441 0)
# Probe 476 (0.57748 0.46091 0)
# Probe 477 (0.59073 0.44956 0)
# Probe 478 (0.59434 0.46722 0)
# Probe 479 (0.60812 0.45514 0)
# Probe 480 (0.60232 0.43573 0)
# Probe 481 (0.62136 0.44262 0)
# Probe 482 (0.61742 0.4253 0)
# Probe 483 (0.63424 0.43078 0)
# Probe 484 (0.63057 0.41372 0)
# Probe 485 (0.64651 0.41927 0)
# Probe 486 (0.64357 0.40235 0)
# Probe 487 (0.65877 0.40893 0)
# Probe 488 (0.6544 0.38849 0)
# Probe 489 (0.67184 0.39719 0)
# Probe 490 (0.6687 0.37835 0)
# Probe 491 (0.48465 0.47613 0)
# Probe 492 (0.47533 0.42445 0)
# Probe 493 (0.42504 0.38424 0)
# Probe 494 (0.4104 0.37667 0)
# Probe 495 (0.51016 0.43613 0)
# Probe 496 (0.43938 0.39134 0)
# Probe 497 (0.55046 0.48556 0)
# Probe 498 (0.53476 0.49831 0)
# Probe 499 (0.54525 0.43271 0)
# Probe 500 (0.60232 0.41791 0)
# Probe 501 (0.57094 0.42828 0)
# Probe 502 (0.43482 0.45587 0)
# Probe 503 (0.42434 0.3687 0)
# Probe 504 (0.4114 0.35875 0)
# Probe 505 (0.39607 0.36913 0)
# Probe 506 (0.39585 0.35263 0)
# Probe 507 (0.40874 0.34314 0)
# Probe 508 (0.39529 0.33666 0)
# Probe 509 (0.68575 0.38444 0)
# Probe 510 (0.68176 0.36706 0)
# Probe 511 (0.66573 0.36164 0)
# Probe 512 (0.67781 0.35061 0)
# Probe 513 (0.69448 0.35534 0)
# Probe 514 (0.68998 0.33823 0)
# Probe 515 (0.68943 0.40382 0)
# Probe 516 (0.40866 0.32854 0)
# Probe 517 (0.39524 0.32052 0)
# Probe 518 (0.62212 0.6741 0)
# Probe 519 (0.1158 0.39869 0)
# Probe 520 (0.38056 0.78122 0)
# Probe 521 (0.38455 0.82248 0)
# Probe 522 (0.42214 0.83859 0)
# Probe 523 (0.2806 0.47087 0)
# Probe 524 (0.66237 0.34663 0)
# Probe 525 (0.65116 0.43632 0)
# Probe 526 (0.20514 0.27041 0)
# Probe 527 (0.17195 0.85335 0)
# Probe 528 (0.3811 0.36206 0)
# Probe 529 (0.63818 0.38667 0)
# Probe 530 (0.40842 0.2395 0)
# Probe 531 (0.39112 0.2496 0)
# Probe 532 (0.40768 0.25748 0)
# Probe 533 (0.39401 0.26801 0)
# Probe 534 (0.77487 0.54921 0)
# Probe 535 (0.61234 0.47382 0)
# Probe 536 (0.77912 0.5828 0)
# Probe 537 (0.21002 0.41638 0)
# Probe 538 (0.38083 0.32917 0)
# Probe 539 (0.38094 0.31253 0)
# Probe 540 (0.39563 0.3039 0)
# Probe 541 (0.86437 0.15088 0)
# Probe 542 (0.12925 0.24386 0)
# Probe 543 (0.41037 0.11359 0)
# Probe 544 (0.87425 0.18831 0)
# Probe 545 (0.90713 0.40871 0)
# Probe 546 (0.87558 0.59049 0)
# Probe 547 (0.37649 0.26249 0)
# Probe 548 (0.12239 0.59726 0)
# Probe 549 (0.42202 0.22779 0)
# Probe 550 (0.25219 0.45752 0)
# Probe 551 (0.90758 0.56655 0)
# Probe 552 (0.39932 0.46824 0)
# Probe 553 (0.38871 0.86442 0)
# Probe 554 (0.42846 0.88109 0)
# Probe 555 (0.81372 0.10601 0)
# Probe 556 (0.74754 0.57011 0)
# Probe 557 (0.75182 0.60329 0)
# Probe 558 (0.72064 0.59085 0)
# Probe 559 (0.56939 0.15184 0)
# Probe 560 (0.54786 0.15035 0)
# Probe 561 (0.53713 0.13266 0)
# Probe 562 (0.52718 0.15435 0)
# Probe 563 (0.51524 0.13287 0)
# Probe 564 (0.50603 0.15328 0)
# Probe 565 (0.88424 0.46786 0)
# Probe 566 (0.59828 0.48646 0)
# Probe 567 (0.46117 0.85437 0)
# Probe 568 (0.70738 0.34274 0)
# Probe 569 (0.70263 0.32489 0)
# Probe 570 (0.68266 0.32168 0)
# Probe 571 (0.69698 0.30748 0)
# Probe 572 (0.67996 0.30389 0)
# Probe 573 (0.69189 0.29113 0)
# Probe 574 (0.67325 0.28814 0)
# Probe 575 (0.68691 0.27501 0)
# Probe 576 (0.55414 0.50634 0)
# Probe 577 (0.53714 0.51951 0)
# Probe 578 (0.64145 0.82536 0)
# Probe 579 (0.64624 0.86729 0)
# Probe 580 (0.6065 0.85114 0)
# Probe 581 (0.612 0.89402 0)
# Probe 582 (0.57189 0.87694 0)
# Probe 583 (0.56669 0.8344 0)
# Probe 584 (0.8783 0.72966 0)
# Probe 585 (0.16116 0.76188 0)
# Probe 586 (0.1287 0.83156 0)
# Probe 587 (0.38152 0.3794 0)
# Probe 588 (0.46885 0.67779 0)
# Probe 589 (0.45832 0.11443 0)
# Probe 590 (0.75332 0.83062 0)
# Probe 591 (0.76007 0.87401 0)
# Probe 592 (0.79526 0.84629 0)
# Probe 593 (0.67094 0.27146 0)
# Probe 594 (0.68221 0.25953 0)
# Probe 595 (0.66706 0.25639 0)
# Probe 596 (0.67784 0.24413 0)
# Probe 597 (0.66061 0.24161 0)
# Probe 598 (0.67277 0.22875 0)
# Probe 599 (0.6573 0.22462 0)
# Probe 600 (0.66855 0.21245 0)
# Probe 601 (0.65222 0.20841 0)
# Probe 602 (0.70478 0.27773 0)
# Probe 603 (0.8418 0.21633 0)
# Probe 604 (0.88234 0.22603 0)
# Probe 605 (0.85515 0.25234 0)
# Probe 606 (0.89194 0.263 0)
# Probe 607 (0.86417 0.28934 0)
# Probe 608 (0.68787 0.23153 0)
# Probe 609 (0.83597 0.38485 0)
# Probe 610 (0.86094 0.3614 0)
# Probe 611 (0.38121 0.2954 0)
# Probe 612 (0.71176 0.36127 0)
# Probe 613 (0.21242 0.86849 0)
# Probe 614 (0.8451 0.75571 0)
# Probe 615 (0.4091 0.27342 0)
# Probe 616 (0.91281 0.70281 0)
# Probe 617 (0.76094 0.13342 0)
# Probe 618 (0.15919 0.61315 0)
# Probe 619 (0.12676 0.63876 0)
# Probe 620 (0.46898 0.89751 0)
# Probe 621 (0.49438 0.13408 0)
# Probe 622 (0.35175 0.84714 0)
# Probe 623 (0.66716 0.31477 0)
# Probe 624 (0.36565 0.32108 0)
# Probe 625 (0.64984 0.35581 0)
# Probe 626 (0.42058 0.20872 0)
# Probe 627 (0.721 0.3288 0)
# Probe 628 (0.64275 0.09177 0)
# Probe 629 (0.60829 0.05312 0)
# Probe 630 (0.8844 0.77402 0)
# Probe 631 (0.51915 0.50986 0)
# Probe 632 (0.61654 0.49369 0)
# Probe 633 (0.53171 0.85611 0)
# Probe 634 (0.72513 0.90205 0)
# Probe 635 (0.17698 0.89977 0)
# Probe 636 (0.35323 0.88976 0)
# Probe 637 (0.31704 0.87226 0)
# Probe 638 (0.31763 0.91666 0)
# Probe 639 (0.11509 0.47562 0)
# Probe 640 (0.3374 0.15355 0)
# Probe 641 (0.33521 0.12274 0)
# Probe 642 (0.36259 0.10836 0)
# Probe 643 (0.33281 0.0871 0)
# Probe 644 (0.30001 0.11032 0)
# Probe 645 (0.89878 0.52646 0)
# Probe 646 (0.85176 0.79908 0)
# Probe 647 (0.89234 0.81945 0)
# Probe 648 (0.25736 0.48456 0)
# Probe 649 (0.85885 0.84417 0)
# Probe 650 (0.42109 0.33432 0)
# Probe 651 (0.41946 0.32209 0)
# Probe 652 (0.42202 0.26454 0)
# Probe 653 (0.42023 0.25038 0)
# Probe 654 (0.53987 0.16759 0)
# Probe 655 (0.43315 0.92312 0)
# Probe 656 (0.52641 0.11527 0)
# Probe 657 (0.55737 0.52778 0)
# Probe 658 (0.36516 0.37242 0)
# Probe 659 (0.82156 0.63283 0)
# Probe 660 (0.17369 0.32086 0)
# Probe 661 (0.20611 0.33868 0)
# Probe 662 (0.48622 0.15535 0)
# Probe 663 (0.13958 0.30395 0)
# Probe 664 (0.27978 0.89957 0)
# Probe 665 (0.59045 0.15261 0)
# Probe 666 (0.58087 0.16621 0)
# Probe 667 (0.59475 0.16923 0)
# Probe 668 (0.31476 0.78811 0)
# Probe 669 (0.89954 0.29992 0)
# Probe 670 (0.79703 0.89181 0)
# Probe 671 (0.53952 0.54304 0)
# Probe 672 (0.08472 0.57778 0)
# Probe 673 (0.08172 0.53841 0)
# Probe 674 (0.64673 0.2354 0)
# Probe 675 (0.3754 0.41425 0)
# Probe 676 (0.49784 0.16842 0)
# Probe 677 (0.47971 0.17443 0)
# Probe 678 (0.45251 0.16929 0)
# Probe 679 (0.44735 0.19069 0)
# Probe 680 (0.89536 0.16171 0)
# Probe 681 (0.88971 0.12005 0)
# Probe 682 (0.57712 0.92085 0)
# Probe 683 (0.90676 0.65188 0)
# Probe 684 (0.28196 0.50101 0)
# Probe 685 (0.70427 0.38994 0)
# Probe 686 (0.71065 0.40962 0)
# Probe 687 (0.66424 0.19563 0)
# Probe 688 (0.64667 0.19115 0)
# Probe 689 (0.63527 0.20478 0)
# Probe 690 (0.6303 0.18814 0)
# Probe 691 (0.64141 0.1772 0)
# Probe 692 (0.66491 0.30229 0)
# Probe 693 (0.72412 0.62577 0)
# Probe 694 (0.69387 0.61105 0)
# Probe 695 (0.93125 0.27756 0)
# Probe 696 (0.10476 0.32259 0)
# Probe 697 (0.10198 0.28026 0)
# Probe 698 (0.64916 0.34149 0)
# Probe 699 (0.65844 0.33379 0)
# Probe 700 (0.52889 0.44042 0)
# Probe 701 (0.52119 0.42551 0)
# Probe 702 (0.50721 0.42062 0)
# Probe 703 (0.53662 0.4149 0)
# Probe 704 (0.69284 0.42529 0)
# Probe 705 (0.24883 0.42255 0)
# Probe 706 (0.7423 0.53516 0)
# Probe 707 (0.64053 0.22108 0)
# Probe 708 (0.93892 0.54015 0)
# Probe 709 (0.61781 0.93666 0)
# Probe 710 (0.49257 0.42832 0)
# Probe 711 (0.49604 0.41277 0)
# Probe 712 (0.47875 0.40376 0)
# Probe 713 (0.50714 0.40555 0)
# Probe 714 (0.52699 0.81198 0)
# Probe 715 (0.56827 0.49248 0)
# Probe 716 (0.34071 0.31989 0)
# Probe 717 (0.56579 0.78706 0)
# Probe 718 (0.65934 0.27998 0)
# Probe 719 (0.43502 0.21971 0)
# Probe 720 (0.43566 0.23474 0)
# Probe 721 (0.42749 0.04035 0)
# Probe 722 (0.55554 0.16598 0)
# Probe 723 (0.71544 0.43476 0)
# Probe 724 (0.65373 0.37105 0)
# Probe 725 (0.64143 0.36607 0)
# Probe 726 (0.55761 0.42334 0)
# Probe 727 (0.56813 0.41397 0)
# Probe 728 (0.58043 0.41892 0)
# Probe 729 (0.55492 0.40893 0)
# Probe 730 (0.5663 0.40182 0)
# Probe 731 (0.4381 0.37595 0)
# Probe 732 (0.45119 0.38239 0)
# Probe 733 (0.45259 0.39661 0)
# Probe 734 (0.43644 0.36149 0)
# Probe 735 (0.42615 0.3542 0)
# Probe 736 (0.43715 0.34838 0)
# Probe 737 (0.4633 0.38896 0)
# Probe 738 (0.44917 0.36664 0)
# Probe 739 (0.46241 0.37542 0)
# Probe 740 (0.67271 0.4383 0)
# Probe 741 (0.67408 0.46157 0)
# Probe 742 (0.16678 0.65905 0)
# Probe 743 (0.13119 0.68128 0)
# Probe 744 (0.08195 0.66065 0)
# Probe 745 (0.094 0.70745 0)
# Probe 746 (0.71435 0.22348 0)
# Probe 747 (0.72427 0.04015 0)
# Probe 748 (0.69908 0.07712 0)
# Probe 749 (0.74149 0.07696 0)
# Probe 750 (0.71997 0.10339 0)
# Probe 751 (0.36551 0.33784 0)
# Probe 752 (0.82768 0.35217 0)
# Probe 753 (0.61546 0.40622 0)
# Probe 754 (0.59984 0.40434 0)
# Probe 755 (0.60972 0.39534 0)
# Probe 756 (0.62881 0.39687 0)
# Probe 757 (0.62608 0.38366 0)
# Probe 758 (0.43902 0.20609 0)
# Probe 759 (0.45475 0.20613 0)
# Probe 760 (0.46264 0.52678 0)
# Probe 761 (0.45944 0.50176 0)
# Probe 762 (0.43722 0.48876 0)
# Probe 763 (0.48438 0.51218 0)
# Probe 764 (0.45617 0.48041 0)
# Probe 765 (0.41608 0.50103 0)
# Probe 766 (0.64663 0.32965 0)
# Probe 767 (0.32834 0.04249 0)
# Probe 768 (0.22496 0.47538 0)
# Probe 769 (0.57743 0.40483 0)
# Probe 770 (0.5879 0.39882 0)
# Probe 771 (0.34057 0.26676 0)
# Probe 772 (0.36294 0.27902 0)
# Probe 773 (0.46169 0.41688 0)
# Probe 774 (0.90083 0.86607 0)
# Probe 775 (0.86738 0.89428 0)
# Probe 776 (0.46522 0.40266 0)
# Probe 777 (0.27966 0.95054 0)
# Probe 778 (0.51462 0.17028 0)
# Probe 779 (0.69767 0.64351 0)
# Probe 780 (0.66735 0.63028 0)
# Probe 781 (0.67063 0.66385 0)
# Probe 782 (0.66693 0.59589 0)
# Probe 783 (0.44909 0.07627 0)
# Probe 784 (0.41389 0.18948 0)
# Probe 785 (0.39767 0.28582 0)
# Probe 786 (0.40975 0.29626 0)
# Probe 787 (0.7282 0.27664 0)
# Probe 788 (0.61846 0.19888 0)
# Probe 789 (0.61431 0.18498 0)
# Probe 790 (0.20689 0.37513 0)
# Probe 791 (0.23424 0.35518 0)
# Probe 792 (0.23633 0.31965 0)
# Probe 793 (0.23616 0.39018 0)
# Probe 794 (0.4108 0.31219 0)
# Probe 795 (0.35255 0.41925 0)
# Probe 796 (0.69441 0.69491 0)
# Probe 797 (0.75644 0.64256 0)
# Probe 798 (0.67364 0.33555 0)
# Probe 799 (0.53468 0.39825 0)
# Probe 800 (0.51323 0.39557 0)
# Probe 801 (0.49366 0.38797 0)
# Probe 802 (0.49599 0.39986 0)
# Probe 803 (0.47627 0.39344 0)
# Probe 804 (0.22728 0.04199 0)
# Probe 805 (0.2027 0.08258 0)
# Probe 806 (0.15566 0.08429 0)
# Probe 807 (0.17907 0.12037 0)
# Probe 808 (0.12989 0.12644 0)
# Probe 809 (0.22037 0.11868 0)
# Probe 810 (0.10783 0.08221 0)
# Probe 811 (0.44023 0.33761 0)
# Probe 812 (0.48293 0.38398 0)
# Probe 813 (0.62003 0.36272 0)
# Probe 814 (0.04919 0.69778 0)
# Probe 815 (0.62688 0.35451 0)
# Probe 816 (0.04819 0.275 0)
# Probe 817 (0.43143 0.29517 0)
# Probe 818 (0.43231 0.27364 0)
# Probe 819 (0.24506 0.08337 0)
# Probe 820 (0.40528 0.07546 0)
# Probe 821 (0.58494 0.43339 0)
# Probe 822 (0.60479 0.37698 0)
# Probe 823 (0.82728 0.04014 0)
# Probe 824 (0.43514 0.31609 0)
# Probe 825 (0.77244 0.51522 0)
# Probe 826 (0.47337 0.94839 0)
# Probe 827 (0.43463 0.26335 0)
# Probe 828 (0.52802 0.40703 0)
# Probe 829 (0.61383 0.20995 0)
# Probe 830 (0.59615 0.19683 0)
# Probe 831 (0.64586 0.26382 0)
# Probe 832 (0.39155 0.40097 0)
# Probe 833 (0.38011 0.48561 0)
# Probe 834 (0.95498 0.67619 0)
# Probe 835 (0.46689 0.20911 0)
# Probe 836 (0.46394 0.19739 0)
# Probe 837 (0.47536 0.19001 0)
# Probe 838 (0.85268 0.3264 0)
# Probe 839 (0.96077 0.17565 0)
# Probe 840 (0.63409 0.23373 0)
# Probe 841 (0.62061 0.21731 0)
# Probe 842 (0.57662 0.18795 0)
# Probe 843 (0.64891 0.28556 0)
# Probe 844 (0.64702 0.30612 0)
# Probe 845 (0.65744 0.26696 0)
# Probe 846 (0.808 0.40854 0)
# Probe 847 (0.50348 0.18793 0)
# Probe 848 (0.95928 0.37057 0)
# Probe 849 (0.92419 0.35031 0)
# Probe 850 (0.95305 0.4187 0)
# Probe 851 (0.53462 0.18045 0)
# Probe 852 (0.5134 0.18399 0)
# Probe 853 (0.04234 0.17547 0)
# Probe 854 (0.0824 0.19966 0)
# Probe 855 (0.08451 0.15308 0)
# Probe 856 (0.23352 0.25024 0)
# Probe 857 (0.5664 0.18455 0)
# Probe 858 (0.54608 0.17932 0)
# Probe 859 (0.52772 0.77284 0)
# Probe 860 (0.95753 0.72457 0)
# Probe 861 (0.44176 0.40842 0)
# Probe 862 (0.03936 0.37424 0)
# Probe 863 (0.03884 0.42465 0)
# Probe 864 (0.91314 0.60704 0)
# Probe 865 (0.72472 0.95055 0)
# Probe 866 (0.68188 0.20318 0)
# Probe 867 (0.59013 0.66298 0)
# Probe 868 (0.61444 0.64065 0)
# Probe 869 (0.80865 0.19922 0)
# Probe 870 (0.60012 0.50747 0)
# Probe 871 (0.77708 0.95929 0)
# Probe 872 (0.12797 0.04252 0)
# Probe 873 (0.59818 0.18447 0)
# Probe 874 (0.91806 0.44807 0)
# Probe 875 (0.78032 0.08497 0)
# Probe 876 (0.34341 0.36509 0)
# Probe 877 (0.80363 0.37273 0)
# Probe 878 (0.63186 0.48042 0)
# Probe 879 (0.43884 0.69812 0)
# Probe 880 (0.40467 0.68223 0)
# Probe 881 (0.37356 0.70323 0)
# Probe 882 (0.37072 0.66602 0)
# Probe 883 (0.40124 0.64638 0)
# Probe 884 (0.36927 0.63235 0)
# Probe 885 (0.33944 0.6505 0)
# Probe 886 (0.43487 0.66255 0)
# Probe 887 (0.4312 0.62576 0)
# Probe 888 (0.3766 0.74153 0)
# Probe 889 (0.34121 0.72471 0)
# Probe 890 (0.42171 0.28967 0)
# Probe 891 (0.92438 0.03912 0)
# Probe 892 (0.42176 0.30185 0)
# Probe 893 (0.95881 0.82104 0)
# Probe 894 (0.17651 0.95174 0)
# Probe 895 (0.04329 0.82502 0)
# Probe 896 (0.08728 0.8017 0)
# Probe 897 (0.8728 0.94953 0)
# Probe 898 (0.9192 0.49202 0)
# Probe 899 (0.04231 0.92479 0)
# Probe 900 (0.09228 0.90948 0)
# Probe 901 (0.69083 0.57748 0)
# Probe 902 (0.53662 0.90266 0)
# Probe 903 (0.6043 0.80827 0)
# Probe 904 (0.49886 0.65854 0)
# Probe 905 (0.23786 0.28521 0)
# Probe 906 (0.36082 0.30152 0)
# Probe 907 (0.51345 0.5485 0)
# Probe 908 (0.71512 0.5587 0)
# Probe 909 (0.30229 0.66419 0)
# Probe 910 (0.77773 0.41324 0)
# Probe 911 (0.33854 0.68609 0)
# Probe 912 (0.26062 0.12111 0)
# Probe 913 (0.46087 0.3634 0)
# Probe 914 (0.55693 0.39676 0)
# Probe 915 (0.13282 0.8775 0)
# Probe 916 (0.13665 0.72476 0)
# Probe 917 (0.10076 0.75343 0)
# Probe 918 (0.07782 0.45211 0)
# Probe 919 (0.58212 0.63095 0)
# Probe 920 (0.55482 0.75459 0)
# Probe 921 (0.71557 0.31242 0)
# Probe 922 (0.81285 0.59644 0)
# Probe 923 (0.19045 0.5882 0)
# Probe 924 (0.8605 0.64562 0)
# Probe 925 (0.62609 0.46093 0)
# Probe 926 (0.65075 0.46687 0)
# Probe 927 (0.31523 0.1939 0)
# Probe 928 (0.65366 0.25474 0)
# Probe 929 (0.65547 0.31149 0)
# Probe 930 (0.68573 0.88338 0)
# Probe 931 (0.91743 0.19529 0)
# Probe 932 (0.26544 0.26023 0)
# Probe 933 (0.83071 0.27581 0)
# Probe 934 (0.9522 0.58184 0)
# Probe 935 (0.3143 0.60545 0)
# Probe 936 (0.0855 0.61547 0)
# Probe 937 (0.39565 0.61298 0)
# Probe 938 (0.39173 0.5794 0)
# Probe 939 (0.39347 0.90421 0)
# Probe 940 (0.04422 0.56142 0)
# Probe 941 (0.63873 0.2439 0)
# Probe 942 (0.08786 0.85338 0)
# Probe 943 (0.22679 0.44471 0)
# Probe 944 (0.30888 0.74777 0)
# Probe 945 (0.19684 0.157 0)
# Probe 946 (0.20106 0.73979 0)
# Probe 947 (0.24663 0.83919 0)
# Probe 948 (0.74378 0.78972 0)
# Probe 949 (0.11988 0.17694 0)
# Probe 950 (0.63666 0.50087 0)
# Probe 951 (0.45429 0.81285 0)
# Probe 952 (0.73046 0.37193 0)
# Probe 953 (0.95366 0.07644 0)
# Probe 954 (0.91232 0.9106 0)
# Probe 955 (0.74277 0.15675 0)
# Probe 956 (0.5766 0.51553 0)
# Probe 957 (0.6533 0.91008 0)
# Probe 958 (0.30777 0.14259 0)
# Probe 959 (0.08535 0.24127 0)
# Probe 960 (0.307 0.48262 0)
# Probe 961 (0.46842 0.15896 0)
# Probe 962 (0.04189 0.07745 0)
# Probe 963 (0.6384 0.78479 0)
# Probe 964 (0.44729 0.23455 0)
# Probe 965 (0.85002 0.07887 0)
# Probe 966 (0.56422 0.47306 0)
# Probe 967 (0.78492 0.61837 0)
# Probe 968 (0.11701 0.51687 0)
# Probe 969 (0.27984 0.35739 0)
# Probe 970 (0.81607 0.32361 0)