# Probe 0 (0 0 0)
# Probe 1 (1 0 0)
# Probe 2 (1 1 0)
# Probe 3 (0 1 0)
# Probe 4 (0.52 0.61 0)
# Probe 5 (0.42 0.51 0)
# Probe 6 (0.32 0.61 0)
# Probe 7 (0.42 0.71 0)
# Probe 8 (0.05 0 0)
# Probe 9 (0.1 0 0)
# Probe 10 (0.15 0 0)
# Probe 11 (0.2 0 0)
# Probe 12 (0.25 0 0)
# Probe 13 (0.3 0 0)
# Probe 14 (0.35 0 0)
# Probe 15 (0.4 0 0)
# Probe 16 (0.45 0 0)
# Probe 17 (0.5 0 0)
# Probe 18 (0.55 0 0)
# Probe 19 (0.6 0 0)
# Probe 20 (0.65 0 0)
# Probe 21 (0.7 0 0)
# Probe 22 (0.75 0 0)
# Probe 23 (0.8 0 0)
# Probe 24 (0.85 0 0)
# Probe 25 (0.9 0 0)
# Probe 26 (0.95 0 0)
# Probe 27 (1 0.05 0)
# Probe 28 (1 0.1 0)
# Probe 29 (1 0.15 0)
# Probe 30 (1 0.2 0)
# Probe 31 (1 0.25 0)
# Probe 32 (1 0.3 0)
# Probe 33 (1 0.35 0)
# Probe 34 (1 0.4 0)
# Probe 35 (1 0.45 0)
# Probe 36 (1 0.5 0)
# Probe 37 (1 0.55 0)
# Probe 38 (1 0.6 0)
# Probe 39 (1 0.65 0)
# Probe 40 (1 0.7 0)
# Probe 41 (1 0.75 0)
# Probe 42 (1 0.8 0)
# Probe 43 (1 0.85 0)
# Probe 44 (1 0.9 0)
# Probe 45 (1 0.95 0)
# Probe 46 (0.95 1 0)
# Probe 47 (0.9 1 0)
# Probe 48 (0.85 1 0)
# Probe 49 (0.8 1 0)
# Probe 50 (0.75 1 0)
# Probe 51 (0.7 1 0)
# Probe 52 (0.65 1 0)
# Probe 53 (0.6 1 0)
# Probe 54 (0.55 1 0)
# Probe 55 (0.5 1 0)
# Probe 56 (0.45 1 0)
# Probe 57 (0.4 1 0)
# Probe 58 (0.35 1 0)
# Probe 59 (0.3 1 0)
# Probe 60 (0.25 1 0)
# Probe 61 (0.2 1 0)
# Probe 62 (0.15 1 0)
# Probe 63 (0.1 1 0)
# Probe 64 (0.05 1 0)
# Probe 65 (0 0.95 0)
# Probe 66 (0 0.9 0)
# Probe 67 (0 0.85 0)
# Probe 68 (0 0.8 0)
# Probe 69 (0 0.75 0)
# Probe 70 (0 0.7 0)
# Probe 71 (0 0.65 0)
# Probe 72 (0 0.6 0)
# Probe 73 (0 0.55 0)
# Probe 74 (0 0.5 0)
# Probe 75 (0 0.45 0)
# Probe 76 (0 0.4 0)
# Probe 77 (0 0.35 0)
# Probe 78 (0 0.3 0)
# Probe 79 (0 0.25 0)
# Probe 80 (0 0.2 0)
# Probe 81 (0 0.15 0)
# Probe 82 (0 0.1 0)
# Probe 83 (0 0.05 0)
# Probe 84 (0.51952 0.6002 0)
# Probe 85 (0.51808 0.59049 0)
# Probe 86 (0.51569 0.58097 0)
# Probe 87 (0.51239 0.57173 0)
# Probe 88 (0.50819 0.56286 0)
# Probe 89 (0.50315 0.55444 0)
# Probe 90 (0.4973 0.54656 0)
# Probe 91 (0.49071 0.53929 0)
# Probe 92 (0.48344 0.5327 0)
# Probe 93 (0.47556 0.52685 0)
# Probe 94 (0.46714 0.52181 0)
# Probe 95 (0.45827 0.51761 0)
# Probe 96 (0.44903 0.51431 0)
# Probe 97 (0.43951 0.51192 0)
# Probe 98 (0.4298 0.51048 0)
# Probe 99 (0.4102 0.51048 0)
# Probe 100 (0.40049 0.51192 0)
# Probe 101 (0.39097 0.51431 0)
# Probe 102 (0.38173 0.51761 0)
# Probe 103 (0.37286 0.52181 0)
# Probe 104 (0.36444 0.52685 0)
# Probe 105 (0.35656 0.5327 0)
# Probe 106 (0.34929 0.53929 0)
# Probe 107 (0.3427 0.54656 0)
# Probe 108 (0.33685 0.55444 0)
# Probe 109 (0.33181 0.56286 0)
# Probe 110 (0.32761 0.57173 0)
# Probe 111 (0.32431 0.58097 0)
# Probe 112 (0.32192 0.59049 0)
# Probe 113 (0.32048 0.6002 0)
# Probe 114 (0.32048 0.6198 0)
# Probe 115 (0.32192 0.62951 0)
# Probe 116 (0.32431 0.63903 0)
# Probe 117 (0.32761 0.64827 0)
# Probe 118 (0.33181 0.65714 0)
# Probe 119 (0.33685 0.66556 0)
# Probe 120 (0.3427 0.67344 0)
# Probe 121 (0.34929 0.68071 0)
# Probe 122 (0.35656 0.6873 0)
# Probe 123 (0.36444 0.69315 0)
# Probe 124 (0.37286 0.69819 0)
# Probe 125 (0.38173 0.70239 0)
# Probe 126 (0.39097 0.70569 0)
# Probe 127 (0.40049 0.70808 0)
# Probe 128 (0.4102 0.70952 0)
# Probe 129 (0.4298 0.70952 0)
# Probe 130 (0.43951 0.70808 0)
# Probe 131 (0.44903 0.70569 0)
# Probe 132 (0.45827 0.70239 0)
# Probe 133 (0.46714 0.69819 0)
# Probe 134 (0.47556 0.69315 0)
# Probe 135 (0.48344 0.6873 0)
# Probe 136 (0.49071 0.68071 0)
# Probe 137 (0.4973 0.67344 0)
# Probe 138 (0.50315 0.66556 0)
# Probe 139 (0.50819 0.65714 0)
# Probe 140 (0.51239 0.64827 0)
# Probe 141 (0.51569 0.63903 0)
# Probe 142 (0.51808 0.62951 0)
# Probe 143 (0.51952 0.6198 0)
# Probe 144 (0.68042 0.0472 0)
# Probe 145 (0.95695 0.37754 0)
# Probe 146 (0.27711 0.04406 0)
# Probe 147 (0.52294 0.04343 0)
# Probe 148 (0.95708 0.72282 0)
# Probe 149 (0.95051 0.52694 0)
# Probe 150 (0.04404 0.324 0)
# Probe 151 (0.67607 0.95971 0)
# Probe 152 (0.0431 0.77765 0)
# Probe 153 (0.23043 0.96075 0)
# Probe 154 (0.04264 0.47488 0)
# Probe 155 (0.04408 0.62427 0)
# Probe 156 (0.9567 0.225 0)
# Probe 157 (0.525 0.9567 0)
# Probe 158 (0.37362 0.9597 0)
# Probe 159 (0.82589 0.95706 0)
# Probe 160 (0.0486 0.17669 0)
# Probe 161 (0.82387 0.04041 0)
# Probe 162 (0.9574 0.62637 0)
# Probe 163 (0.9567 0.825 0)
# Probe 164 (0.42702 0.04299 0)
# Probe 165 (0.17828 0.04283 0)
# Probe 166 (0.04143 0.87243 0)
# Probe 167 (0.95568 0.12975 0)
# Probe 168 (0.12562 0.95711 0)
# Probe 169 (0.92539 0.9506 0)
# Probe 170 (0.04227 0.07481 0)
# Probe 171 (0.925 0.0433 0)
# Probe 172 (0.95788 0.67436 0)
# Probe 173 (0.91768 0.69846 0)
# Probe 174 (0.91576 0.74357 0)
# Probe 175 (0.87888 0.7207 0)
# Probe 176 (0.87709 0.76306 0)
# Probe 177 (0.84162 0.74024 0)
# Probe 178 (0.84374 0.70043 0)
# Probe 179 (0.80921 0.71799 0)
# Probe 180 (0.80983 0.68293 0)
# Probe 181 (0.77851 0.69816 0)
# Probe 182 (0.77869 0.66581 0)
# Probe 183 (0.7507 0.67918 0)
# Probe 184 (0.75135 0.64818 0)
# Probe 185 (0.52652 0.62601 0)
# Probe 186 (0.72462 0.66215 0)
# Probe 187 (0.72609 0.63243 0)
# Probe 188 (0.72323 0.69198 0)
# Probe 189 (0.6991 0.67615 0)
# Probe 190 (0.69731 0.70461 0)
# Probe 191 (0.51852 0.65654 0)
# Probe 192 (0.67042 0.68693 0)
# Probe 193 (0.67086 0.71704 0)
# Probe 194 (0.75159 0.61768 0)
# Probe 195 (0.72142 0.60219 0)
# Probe 196 (0.75127 0.58782 0)
# Probe 197 (0.72531 0.57226 0)
# Probe 198 (0.52692 0.59408 0)
# Probe 199 (0.75215 0.55813 0)
# Probe 200 (0.72624 0.54324 0)
# Probe 201 (0.7012 0.55719 0)
# Probe 202 (0.70109 0.52909 0)
# Probe 203 (0.72568 0.51428 0)
# Probe 204 (0.70001 0.50039 0)
# Probe 205 (0.72515 0.48499 0)
# Probe 206 (0.69858 0.47086 0)
# Probe 207 (0.72443 0.45505 0)
# Probe 208 (0.69715 0.44064 0)
# Probe 209 (0.67315 0.45697 0)
# Probe 210 (0.66985 0.42676 0)
# Probe 211 (0.51841 0.56384 0)
# Probe 212 (0.69744 0.40904 0)
# Probe 213 (0.6688 0.39458 0)
# Probe 214 (0.64128 0.41328 0)
# Probe 215 (0.49372 0.52899 0)
# Probe 216 (0.63895 0.38345 0)
# Probe 217 (0.61384 0.3989 0)
# Probe 218 (0.61104 0.37115 0)
# Probe 219 (0.58751 0.38648 0)
# Probe 220 (0.58505 0.35761 0)
# Probe 221 (0.56148 0.37335 0)
# Probe 222 (0.46652 0.51201 0)
# Probe 223 (0.55926 0.34539 0)
# Probe 224 (0.53578 0.36088 0)
# Probe 225 (0.6624 0.35723 0)
# Probe 226 (0.58109 0.32884 0)
# Probe 227 (0.53297 0.33449 0)
# Probe 228 (0.50609 0.35131 0)
# Probe 229 (0.50678 0.32236 0)
# Probe 230 (0.48211 0.33497 0)
# Probe 231 (0.43615 0.50263 0)
# Probe 232 (0.48159 0.30801 0)
# Probe 233 (0.45738 0.32333 0)
# Probe 234 (0.45583 0.29537 0)
# Probe 235 (0.4311 0.31151 0)
# Probe 236 (0.67788 0.54372 0)
# Probe 237 (0.43476 0.33879 0)
# Probe 238 (0.4041 0.50279 0)
# Probe 239 (0.40732 0.32955 0)
# Probe 240 (0.40327 0.29679 0)
# Probe 241 (0.37895 0.31767 0)
# Probe 242 (0.38277 0.34835 0)
# Probe 243 (0.35525 0.33634 0)
# Probe 244 (0.35033 0.30546 0)
# Probe 245 (0.35796 0.36544 0)
# Probe 246 (0.37366 0.51203 0)
# Probe 247 (0.33145 0.35233 0)
# Probe 248 (0.33523 0.3817 0)
# Probe 249 (0.30914 0.37143 0)
# Probe 250 (0.31276 0.39865 0)
# Probe 251 (0.28619 0.38809 0)
# Probe 252 (0.28216 0.36195 0)
# Probe 253 (0.29192 0.42009 0)
# Probe 254 (0.33966 0.5369 0)
# Probe 255 (0.50889 0.29337 0)
# Probe 256 (0.58933 0.41386 0)
# Probe 257 (0.69573 0.73331 0)
# Probe 258 (0.66935 0.74554 0)
# Probe 259 (0.64562 0.72972 0)
# Probe 260 (0.51369 0.37879 0)
# Probe 261 (0.26177 0.40608 0)
# Probe 262 (0.26737 0.43393 0)
# Probe 263 (0.64345 0.75757 0)
# Probe 264 (0.6205 0.74155 0)
# Probe 265 (0.49277 0.69061 0)
# Probe 266 (0.50694 0.54415 0)
# Probe 267 (0.35544 0.52295 0)
# Probe 268 (0.50705 0.6746 0)
# Probe 269 (0.61796 0.76892 0)
# Probe 270 (0.69399 0.76325 0)
# Probe 271 (0.59521 0.75302 0)
# Probe 272 (0.2399 0.42271 0)
# Probe 273 (0.24374 0.45219 0)
# Probe 274 (0.7515 0.46837 0)
# Probe 275 (0.36055 0.39227 0)
# Probe 276 (0.59278 0.77998 0)
# Probe 277 (0.44563 0.71555 0)
# Probe 278 (0.46649 0.70825 0)
# Probe 279 (0.42543 0.72024 0)
# Probe 280 (0.57075 0.76473 0)
# Probe 281 (0.59654 0.72457 0)
# Probe 282 (0.56838 0.79168 0)
# Probe 283 (0.5443 0.77285 0)
# Probe 284 (0.77904 0.57329 0)
# Probe 285 (0.31838 0.42483 0)
# Probe 286 (0.54384 0.80239 0)
# Probe 287 (0.52241 0.78758 0)
# Probe 288 (0.5669 0.81897 0)
# Probe 289 (0.52015 0.81401 0)
# Probe 290 (0.49914 0.79898 0)
# Probe 291 (0.49633 0.82531 0)
# Probe 292 (0.4735 0.80628 0)
# Probe 293 (0.67752 0.5695 0)
# Probe 294 (0.656 0.55731 0)
# Probe 295 (0.65569 0.58096 0)
# Probe 296 (0.63588 0.56941 0)
# Probe 297 (0.63502 0.59162 0)
# Probe 298 (0.63583 0.54675 0)
# Probe 299 (0.61694 0.55818 0)
# Probe 300 (0.61648 0.53701 0)
# Probe 301 (0.59995 0.54741 0)
# Probe 302 (0.60164 0.568 0)
# Probe 303 (0.59862 0.52752 0)
# Probe 304 (0.21709 0.43934 0)
# Probe 305 (0.22088 0.4691 0)
# Probe 306 (0.32201 0.56343 0)
# Probe 307 (0.21123 0.40595 0)
# Probe 308 (0.24689 0.48112 0)
# Probe 309 (0.22513 0.49778 0)
# Probe 310 (0.47188 0.83636 0)
# Probe 311 (0.4503 0.82016 0)
# Probe 312 (0.58132 0.53794 0)
# Probe 313 (0.5808 0.51795 0)
# Probe 314 (0.2497 0.50798 0)
# Probe 315 (0.22953 0.5229 0)
# Probe 316 (0.3129 0.59368 0)
# Probe 317 (0.20385 0.51486 0)
# Probe 318 (0.21266 0.54324 0)
# Probe 319 (0.27134 0.49218 0)
# Probe 320 (0.18168 0.53267 0)
# Probe 321 (0.18769 0.56128 0)
# Probe 322 (0.21424 0.57239 0)
# Probe 323 (0.19294 0.58905 0)
# Probe 324 (0.31251 0.62525 0)
# Probe 325 (0.21798 0.59845 0)
# Probe 326 (0.19837 0.61504 0)
# Probe 327 (0.2256 0.62378 0)
# Probe 328 (0.20437 0.64 0)
# Probe 329 (0.22769 0.64887 0)
# Probe 330 (0.3473 0.6902 0)
# Probe 331 (0.32704 0.66572 0)
# Probe 332 (0.20897 0.66443 0)
# Probe 333 (0.23597 0.67227 0)
# Probe 334 (0.21426 0.68883 0)
# Probe 335 (0.23745 0.69671 0)
# Probe 336 (0.21827 0.7138 0)
# Probe 337 (0.24309 0.72317 0)
# Probe 338 (0.3735 0.70796 0)
# Probe 339 (0.22295 0.74021 0)
# Probe 340 (0.2495 0.75023 0)
# Probe 341 (0.31782 0.64656 0)
# Probe 342 (0.39361 0.71526 0)
# Probe 343 (0.22793 0.76869 0)
# Probe 344 (0.25615 0.77712 0)
# Probe 345 (0.18792 0.68189 0)
# Probe 346 (0.27932 0.75605 0)
# Probe 347 (0.28431 0.78504 0)
# Probe 348 (0.23586 0.79759 0)
# Probe 349 (0.30607 0.76709 0)
# Probe 350 (0.31133 0.7942 0)
# Probe 351 (0.20359 0.78811 0)
# Probe 352 (0.55283 0.74661 0)
# Probe 353 (0.33206 0.77511 0)
# Probe 354 (0.33965 0.803 0)
# Probe 355 (0.31691 0.82299 0)
# Probe 356 (0.34776 0.83234 0)
# Probe 357 (0.3587 0.78337 0)
# Probe 358 (0.19353 0.45684 0)
# Probe 359 (0.83954 0.7813 0)
# Probe 360 (0.75234 0.43796 0)
# Probe 361 (0.78101 0.45217 0)
# Probe 362 (0.78159 0.41897 0)
# Probe 363 (0.25562 0.53341 0)
# Probe 364 (0.59798 0.50761 0)
# Probe 365 (0.58016 0.4987 0)
# Probe 366 (0.56374 0.50871 0)
# Probe 367 (0.56289 0.49015 0)
# Probe 368 (0.54729 0.50021 0)
# Probe 369 (0.54633 0.48205 0)
# Probe 370 (0.53151 0.49185 0)
# Probe 371 (0.53035 0.47418 0)
# Probe 372 (0.51595 0.48372 0)
# Probe 373 (0.51477 0.46646 0)
# Probe 374 (0.45066 0.79474 0)
# Probe 375 (0.8122 0.43566 0)
# Probe 376 (0.81185 0.39885 0)
# Probe 377 (0.50079 0.47623 0)
# Probe 378 (0.49953 0.45888 0)
# Probe 379 (0.4833 0.46939 0)
# Probe 380 (0.48401 0.45137 0)
# Probe 381 (0.46895 0.45969 0)
# Probe 382 (0.46885 0.44341 0)
# Probe 383 (0.45455 0.45264 0)
# Probe 384 (0.45347 0.4352 0)
# Probe 385 (0.43861 0.44511 0)
# Probe 386 (0.43745 0.42681 0)
# Probe 387 (0.42235 0.43713 0)
# Probe 388 (0.77994 0.38198 0)
# Probe 389 (0.81091 0.36107 0)
# Probe 390 (0.77713 0.34264 0)
# Probe 391 (0.81015 0.32182 0)
# Probe 392 (0.77482 0.30301 0)
# Probe 393 (0.80917 0.28146 0)
# Probe 394 (0.77267 0.2622 0)
# Probe 395 (0.80809 0.23982 0)
# Probe 396 (0.77066 0.22042 0)
# Probe 397 (0.73506 0.24329 0)
# Probe 398 (0.26328 0.70646 0)
# Probe 399 (0.63874 0.78616 0)
# Probe 400 (0.15811 0.55148 0)
# Probe 401 (0.17248 0.60803 0)
# Probe 402 (0.73325 0.2014 0)
# Probe 403 (0.69802 0.2232 0)
# Probe 404 (0.50214 0.77506 0)
# Probe 405 (0.23912 0.60429 0)
# Probe 406 (0.21171 0.82095 0)
# Probe 407 (0.52903 0.4542 0)
# Probe 408 (0.4456 0.84664 0)
# Probe 409 (0.32232 0.85447 0)
# Probe 410 (0.2501 0.65339 0)
# Probe 411 (0.81045 0.46857 0)
# Probe 412 (0.17687 0.80959 0)
# Probe 413 (0.51837 0.84138 0)
# Probe 414 (0.45177 0.41519 0)
# Probe 415 (0.59723 0.48717 0)
# Probe 416 (0.54769 0.51593 0)
# Probe 417 (0.84481 0.45385 0)
# Probe 418 (0.1522 0.52027 0)
# Probe 419 (0.17441 0.77488 0)
# Probe 420 (0.80714 0.19744 0)
# Probe 421 (0.6547 0.60395 0)
# Probe 422 (0.63402 0.61404 0)
# Probe 423 (0.42374 0.45471 0)
# Probe 424 (0.40779 0.44723 0)
# Probe 425 (0.84283 0.66263 0)
# Probe 426 (0.69623 0.1822 0)
# Probe 427 (0.66232 0.20489 0)
# Probe 428 (0.42082 0.4184 0)
# Probe 429 (0.73148 0.15916 0)
# Probe 430 (0.8441 0.30177 0)
# Probe 431 (0.83734 0.49579 0)
# Probe 432 (0.66384 0.24433 0)
# Probe 433 (0.62905 0.22645 0)
# Probe 434 (0.6268 0.18774 0)
# Probe 435 (0.59412 0.20913 0)
# Probe 436 (0.59177 0.17061 0)
# Probe 437 (0.55891 0.19199 0)
# Probe 438 (0.49922 0.44176 0)
# Probe 439 (0.32763 0.75158 0)
# Probe 440 (0.12624 0.54124 0)
# Probe 441 (0.63504 0.52501 0)
# Probe 442 (0.42923 0.8059 0)
# Probe 443 (0.43298 0.78147 0)
# Probe 444 (0.18358 0.84555 0)
# Probe 445 (0.47074 0.86593 0)
# Probe 446 (0.77469 0.73401 0)
# Probe 447 (0.56239 0.47145 0)
# Probe 448 (0.50262 0.49318 0)
# Probe 449 (0.45134 0.77246 0)
# Probe 450 (0.45639 0.46691 0)
# Probe 451 (0.40946 0.46407 0)
# Probe 452 (0.39382 0.4571 0)
# Probe 453 (0.44137 0.87774 0)
# Probe 454 (0.35513 0.86357 0)
# Probe 455 (0.22094 0.85622 0)
# Probe 456 (0.55701 0.1535 0)
# Probe 457 (0.52352 0.17493 0)
# Probe 458 (0.59149 0.13184 0)
# Probe 459 (0.6537 0.62671 0)
# Probe 460 (0.63338 0.63672 0)
# Probe 461 (0.61485 0.62427 0)
# Probe 462 (0.61393 0.64607 0)
# Probe 463 (0.59715 0.63497 0)
# Probe 464 (0.59582 0.65479 0)
# Probe 465 (0.5771 0.64439 0)
# Probe 466 (0.58065 0.62599 0)
# Probe 467 (0.57844 0.66276 0)
# Probe 468 (0.61182 0.66593 0)
# Probe 469 (0.56622 0.65539 0)
# Probe 470 (0.56132 0.669 0)
# Probe 471 (0.39174 0.4398 0)
# Probe 472 (0.37722 0.45002 0)
# Probe 473 (0.38105 0.46914 0)
# Probe 474 (0.36334 0.46071 0)
# Probe 475 (0.36581 0.4775 0)
# Probe 476 (0.3488 0.47093 0)
# Probe 477 (0.43585 0.76035 0)
# Probe 478 (0.4175 0.76876 0)
# Probe 479 (0.45308 0.75284 0)
# Probe 480 (0.35197 0.48756 0)
# Probe 481 (0.33616 0.48106 0)
# Probe 482 (0.84301 0.37923 0)
# Probe 483 (0.33845 0.49751 0)
# Probe 484 (0.3229 0.49076 0)
# Probe 485 (0.32464 0.50752 0)
# Probe 486 (0.14666 0.83639 0)
# Probe 487 (0.35895 0.44284 0)
# Probe 488 (0.33191 0.88798 0)
# Probe 489 (0.57694 0.68013 0)
# Probe 490 (0.56097 0.68758 0)
# Probe 491 (0.54596 0.67844 0)
# Probe 492 (0.54465 0.69523 0)
# Probe 493 (0.4241 0.47101 0)
# Probe 494 (0.32067 0.47337 0)
# Probe 495 (0.5592 0.70547 0)
# Probe 496 (0.74502 0.32687 0)
# Probe 497 (0.56137 0.23038 0)
# Probe 498 (0.84555 0.21753 0)
# Probe 499 (0.8448 0.17312 0)
# Probe 500 (0.87916 0.47269 0)
# Probe 501 (0.52137 0.12749 0)
# Probe 502 (0.48767 0.1565 0)
# Probe 503 (0.49119 0.19633 0)
# Probe 504 (0.45562 0.17971 0)
# Probe 505 (0.45172 0.14052 0)
# Probe 506 (0.41925 0.16343 0)
# Probe 507 (0.42474 0.2026 0)
# Probe 508 (0.38823 0.18697 0)
# Probe 509 (0.38373 0.14831 0)
# Probe 510 (0.35128 0.17119 0)
# Probe 511 (0.35775 0.21054 0)
# Probe 512 (0.32051 0.19555 0)
# Probe 513 (0.31451 0.15524 0)
# Probe 514 (0.28255 0.18034 0)
# Probe 515 (0.28859 0.22043 0)
# Probe 516 (0.25104 0.20549 0)
# Probe 517 (0.2574 0.24491 0)
# Probe 518 (0.21979 0.2304 0)
# Probe 519 (0.22581 0.26957 0)
# Probe 520 (0.18781 0.25562 0)
# Probe 521 (0.18165 0.21495 0)
# Probe 522 (0.1958 0.29359 0)
# Probe 523 (0.14854 0.24142 0)
# Probe 524 (0.24339 0.1632 0)
# Probe 525 (0.13981 0.19916 0)
# Probe 526 (0.63129 0.26438 0)
# Probe 527 (0.6644 0.28166 0)
# Probe 528 (0.3797 0.48479 0)
# Probe 529 (0.26221 0.28407 0)
# Probe 530 (0.69383 0.14065 0)
# Probe 531 (0.72957 0.11591 0)
# Probe 532 (0.54275 0.71286 0)
# Probe 533 (0.52897 0.70211 0)
# Probe 534 (0.52671 0.71876 0)
# Probe 535 (0.29557 0.87742 0)
# Probe 536 (0.77928 0.54142 0)
# Probe 537 (0.8078 0.55774 0)
# Probe 538 (0.18968 0.88417 0)
# Probe 539 (0.80736 0.59128 0)
# Probe 540 (0.83831 0.57501 0)
# Probe 541 (0.12036 0.50652 0)
# Probe 542 (0.09066 0.52943 0)
# Probe 543 (0.87473 0.80528 0)
# Probe 544 (0.83679 0.82436 0)
# Probe 545 (0.87357 0.84705 0)
# Probe 546 (0.80221 0.80005 0)
# Probe 547 (0.7989 0.84155 0)
# Probe 548 (0.76596 0.82087 0)
# Probe 549 (0.762 0.85957 0)
# Probe 550 (0.72882 0.83809 0)
# Probe 551 (0.72553 0.87749 0)
# Probe 552 (0.69325 0.85703 0)
# Probe 553 (0.4203 0.74793 0)
# Probe 554 (0.40341 0.75588 0)
# Probe 555 (0.37921 0.84095 0)
# Probe 556 (0.87655 0.51404 0)
# Probe 557 (0.46973 0.89864 0)
# Probe 558 (0.67521 0.61382 0)
# Probe 559 (0.51436 0.70922 0)
# Probe 560 (0.5116 0.72429 0)
# Probe 561 (0.49887 0.714 0)
# Probe 562 (0.49665 0.73012 0)
# Probe 563 (0.39949 0.77492 0)
# Probe 564 (0.3095 0.50088 0)
# Probe 565 (0.31103 0.51782 0)
# Probe 566 (0.10825 0.22649 0)
# Probe 567 (0.11157 0.27237 0)
# Probe 568 (0.09689 0.56653 0)
# Probe 569 (0.30757 0.91532 0)
# Probe 570 (0.43692 0.91384 0)
# Probe 571 (0.75987 0.89695 0)
# Probe 572 (0.76804 0.13577 0)
# Probe 573 (0.5102 0.74016 0)
# Probe 574 (0.41203 0.48104 0)
# Probe 575 (0.1751 0.17373 0)
# Probe 576 (0.13243 0.15561 0)
# Probe 577 (0.8809 0.43078 0)
# Probe 578 (0.91546 0.45233 0)
# Probe 579 (0.17758 0.12682 0)
# Probe 580 (0.12787 0.11288 0)
# Probe 581 (0.65417 0.64842 0)
# Probe 582 (0.40358 0.73882 0)
# Probe 583 (0.39192 0.74619 0)
# Probe 584 (0.19896 0.73079 0)
# Probe 585 (0.63399 0.29966 0)
# Probe 586 (0.38734 0.87212 0)
# Probe 587 (0.26684 0.90303 0)
# Probe 588 (0.61597 0.49636 0)
# Probe 589 (0.61567 0.47482 0)
# Probe 590 (0.59521 0.4647 0)
# Probe 591 (0.63521 0.48463 0)
# Probe 592 (0.61546 0.45195 0)
# Probe 593 (0.72106 0.74781 0)
# Probe 594 (0.42481 0.48357 0)
# Probe 595 (0.88364 0.19432 0)
# Probe 596 (0.88113 0.2386 0)
# Probe 597 (0.88234 0.15 0)
# Probe 598 (0.84297 0.12825 0)
# Probe 599 (0.29642 0.51128 0)
# Probe 600 (0.29865 0.52791 0)
# Probe 601 (0.3136 0.53434 0)
# Probe 602 (0.29988 0.54358 0)
# Probe 603 (0.49314 0.7469 0)
# Probe 604 (0.47995 0.7348 0)
# Probe 605 (0.28579 0.5385 0)
# Probe 606 (0.28808 0.55464 0)
# Probe 607 (0.59981 0.28136 0)
# Probe 608 (0.7667 0.09122 0)
# Probe 609 (0.5004 0.88322 0)
# Probe 610 (0.43607 0.47931 0)
# Probe 611 (0.46924 0.76447 0)
# Probe 612 (0.51617 0.69224 0)
# Probe 613 (0.46473 0.93696 0)
# Probe 614 (0.07416 0.25356 0)
# Probe 615 (0.72701 0.77439 0)
# Probe 616 (0.69777 0.79157 0)
# Probe 617 (0.35336 0.50348 0)
# Probe 618 (0.14748 0.48794 0)
# Probe 619 (0.11496 0.4707 0)
# Probe 620 (0.14291 0.45409 0)
# Probe 621 (0.10959 0.43395 0)
# Probe 622 (0.14611 0.41532 0)
# Probe 623 (0.10632 0.3951 0)
# Probe 624 (0.13879 0.3715 0)
# Probe 625 (0.07559 0.41233 0)
# Probe 626 (0.10258 0.356 0)
# Probe 627 (0.13331 0.33354 0)
# Probe 628 (0.16905 0.347 0)
# Probe 629 (0.69053 0.8938 0)
# Probe 630 (0.6577 0.87224 0)
# Probe 631 (0.66119 0.83788 0)
# Probe 632 (0.62631 0.85214 0)
# Probe 633 (0.62309 0.88843 0)
# Probe 634 (0.59198 0.86584 0)
# Probe 635 (0.58818 0.90381 0)
# Probe 636 (0.56085 0.88118 0)
# Probe 637 (0.61688 0.92185 0)
# Probe 638 (0.30334 0.55947 0)
# Probe 639 (0.29152 0.5694 0)
# Probe 640 (0.276 0.56589 0)
# Probe 641 (0.28194 0.58217 0)
# Probe 642 (0.2639 0.57757 0)
# Probe 643 (0.30585 0.57377 0)
# Probe 644 (0.26802 0.59464 0)
# Probe 645 (0.28403 0.5994 0)
# Probe 646 (0.27227 0.61085 0)
# Probe 647 (0.28754 0.61481 0)
# Probe 648 (0.27579 0.62717 0)
# Probe 649 (0.29098 0.62997 0)
# Probe 650 (0.28058 0.64192 0)
# Probe 651 (0.29461 0.64439 0)
# Probe 652 (0.28492 0.65656 0)
# Probe 653 (0.30027 0.66004 0)
# Probe 654 (0.2889 0.67171 0)
# Probe 655 (0.30418 0.67581 0)
# Probe 656 (0.29244 0.68894 0)
# Probe 657 (0.30888 0.69218 0)
# Probe 658 (0.29682 0.7048 0)
# Probe 659 (0.31293 0.70801 0)
# Probe 660 (0.29983 0.72159 0)
# Probe 661 (0.32474 0.69537 0)
# Probe 662 (0.32948 0.70955 0)
# Probe 663 (0.88461 0.11104 0)
# Probe 664 (0.59206 0.9457 0)
# Probe 665 (0.55708 0.72477 0)
# Probe 666 (0.5215 0.76826 0)
# Probe 667 (0.27215 0.67011 0)
# Probe 668 (0.83677 0.60958 0)
# Probe 669 (0.87003 0.59357 0)
# Probe 670 (0.25976 0.6235 0)
# Probe 671 (0.29726 0.60364 0)
# Probe 672 (0.66454 0.31846 0)
# Probe 673 (0.69554 0.29981 0)
# Probe 674 (0.69613 0.33593 0)
# Probe 675 (0.23449 0.5829 0)
# Probe 676 (0.23513 0.56045 0)
# Probe 677 (0.29479 0.59133 0)
# Probe 678 (0.26878 0.46529 0)
# Probe 679 (0.28815 0.4503 0)
# Probe 680 (0.28899 0.47501 0)
# Probe 681 (0.06558 0.55472 0)
# Probe 682 (0.3678 0.49311 0)
# Probe 683 (0.38183 0.49725 0)
# Probe 684 (0.39111 0.49116 0)
# Probe 685 (0.39794 0.47286 0)
# Probe 686 (0.438 0.74298 0)
# Probe 687 (0.45301 0.737 0)
# Probe 688 (0.80785 0.52387 0)
# Probe 689 (0.77806 0.51171 0)
# Probe 690 (0.35017 0.75783 0)
# Probe 691 (0.34488 0.73545 0)
# Probe 692 (0.36349 0.74098 0)
# Probe 693 (0.36044 0.72299 0)
# Probe 694 (0.37491 0.72999 0)
# Probe 695 (0.37143 0.76043 0)
# Probe 696 (0.32108 0.6791 0)
# Probe 697 (0.53103 0.68562 0)
# Probe 698 (0.53281 0.67059 0)
# Probe 699 (0.54443 0.6633 0)
# Probe 700 (0.54888 0.64459 0)
# Probe 701 (0.53132 0.65652 0)
# Probe 702 (0.76675 0.77807 0)
# Probe 703 (0.27479 0.94003 0)
# Probe 704 (0.08768 0.14139 0)
# Probe 705 (0.63475 0.33145 0)
# Probe 706 (0.80565 0.62141 0)
# Probe 707 (0.34054 0.41087 0)
# Probe 708 (0.56416 0.63171 0)
# Probe 709 (0.56586 0.61729 0)
# Probe 710 (0.58045 0.60915 0)
# Probe 711 (0.56593 0.60247 0)
# Probe 712 (0.55314 0.60965 0)
# Probe 713 (0.55304 0.59554 0)
# Probe 714 (0.56535 0.58813 0)
# Probe 715 (0.55243 0.58138 0)
# Probe 716 (0.56422 0.5738 0)
# Probe 717 (0.5515 0.56756 0)
# Probe 718 (0.54059 0.57353 0)
# Probe 719 (0.53876 0.56046 0)
# Probe 720 (0.55021 0.55366 0)
# Probe 721 (0.53721 0.54747 0)
# Probe 722 (0.5751 0.57982 0)
# Probe 723 (0.57611 0.56635 0)
# Probe 724 (0.54223 0.60186 0)
# Probe 725 (0.54111 0.61609 0)
# Probe 726 (0.54904 0.53969 0)
# Probe 727 (0.53576 0.53446 0)
# Probe 728 (0.52535 0.54127 0)
# Probe 729 (0.52431 0.52967 0)
# Probe 730 (0.56158 0.52787 0)
# Probe 731 (0.72794 0.0709 0)
# Probe 732 (0.33992 0.51356 0)
# Probe 733 (0.32589 0.52241 0)
# Probe 734 (0.43996 0.46359 0)
# Probe 735 (0.62217 0.71525 0)
# Probe 736 (0.60445 0.70188 0)
# Probe 737 (0.33225 0.68465 0)
# Probe 738 (0.56355 0.54493 0)
# Probe 739 (0.53317 0.50854 0)
# Probe 740 (0.51776 0.50267 0)
# Probe 741 (0.50317 0.5081 0)
# Probe 742 (0.4887 0.50268 0)
# Probe 743 (0.48782 0.4867 0)
# Probe 744 (0.47585 0.49468 0)
# Probe 745 (0.473 0.48214 0)
# Probe 746 (0.46383 0.4908 0)
# Probe 747 (0.49268 0.51589 0)
# Probe 748 (0.50291 0.52112 0)
# Probe 749 (0.09434 0.31714 0)
# Probe 750 (0.2689 0.51566 0)
# Probe 751 (0.38321 0.37607 0)
# Probe 752 (0.38409 0.40214 0)
# Probe 753 (0.40432 0.3873 0)
# Probe 754 (0.3674 0.41473 0)
# Probe 755 (0.50495 0.53256 0)
# Probe 756 (0.62524 0.69267 0)
# Probe 757 (0.64639 0.70326 0)
# Probe 758 (0.64337 0.67972 0)
# Probe 759 (0.61669 0.57905 0)
# Probe 760 (0.59795 0.58742 0)
# Probe 761 (0.6127 0.59969 0)
# Probe 762 (0.54119 0.58769 0)
# Probe 763 (0.69511 0.37382 0)
# Probe 764 (0.72221 0.3882 0)
# Probe 765 (0.42556 0.73394 0)
# Probe 766 (0.91828 0.40347 0)
# Probe 767 (0.55252 0.62308 0)
# Probe 768 (0.54217 0.62787 0)
# Probe 769 (0.31874 0.95934 0)
# Probe 770 (0.92562 0.17516 0)
# Probe 771 (0.56439 0.40109 0)
# Probe 772 (0.56629 0.42689 0)
# Probe 773 (0.5431 0.41564 0)
# Probe 774 (0.53978 0.38955 0)
# Probe 775 (0.52071 0.40569 0)
# Probe 776 (0.49708 0.39775 0)
# Probe 777 (0.48899 0.37415 0)
# Probe 778 (0.4744 0.39153 0)
# Probe 779 (0.4655 0.36964 0)
# Probe 780 (0.44795 0.39137 0)
# Probe 781 (0.48255 0.41321 0)
# Probe 782 (0.52494 0.43084 0)
# Probe 783 (0.54556 0.4403 0)
# Probe 784 (0.33871 0.4333 0)
# Probe 785 (0.32324 0.45068 0)
# Probe 786 (0.43885 0.72734 0)
# Probe 787 (0.91652 0.65248 0)
# Probe 788 (0.91353 0.60737 0)
# Probe 789 (0.95589 0.57841 0)
# Probe 790 (0.91166 0.56474 0)
# Probe 791 (0.95695 0.77125 0)
# Probe 792 (0.41277 0.85248 0)
# Probe 793 (0.575 0.71645 0)
# Probe 794 (0.57457 0.73836 0)
# Probe 795 (0.70005 0.64849 0)
# Probe 796 (0.6989 0.58269 0)
# Probe 797 (0.52472 0.63637 0)
# Probe 798 (0.52871 0.61627 0)
# Probe 799 (0.53063 0.60491 0)
# Probe 800 (0.52471 0.58419 0)
# Probe 801 (0.42279 0.95785 0)
# Probe 802 (0.52182 0.57382 0)
# Probe 803 (0.51381 0.55443 0)
# Probe 804 (0.52493 0.55458 0)
# Probe 805 (0.47534 0.51696 0)
# Probe 806 (0.45685 0.50778 0)
# Probe 807 (0.51296 0.66572 0)
# Probe 808 (0.51913 0.67686 0)
# Probe 809 (0.5226 0.64679 0)
# Probe 810 (0.44641 0.50474 0)
# Probe 811 (0.44262 0.4937 0)
# Probe 812 (0.4255 0.50198 0)
# Probe 813 (0.40365 0.81812 0)
# Probe 814 (0.37142 0.80764 0)
# Probe 815 (0.41469 0.50209 0)
# Probe 816 (0.39312 0.50291 0)
# Probe 817 (0.4824 0.78262 0)
# Probe 818 (0.30172 0.61751 0)
# Probe 819 (0.41247 0.72704 0)
# Probe 820 (0.2831 0.71736 0)
# Probe 821 (0.36219 0.51516 0)
# Probe 822 (0.5002 0.68291 0)
# Probe 823 (0.48475 0.69731 0)
# Probe 824 (0.33286 0.54522 0)
# Probe 825 (0.34713 0.52991 0)
# Probe 826 (0.52602 0.21299 0)
# Probe 827 (0.49518 0.23283 0)
# Probe 828 (0.52806 0.24707 0)
# Probe 829 (0.55919 0.26708 0)
# Probe 830 (0.45985 0.2178 0)
# Probe 831 (0.4287 0.24066 0)
# Probe 832 (0.39434 0.2257 0)
# Probe 833 (0.36317 0.24816 0)
# Probe 834 (0.39978 0.26212 0)
# Probe 835 (0.32737 0.23439 0)
# Probe 836 (0.29707 0.2588 0)
# Probe 837 (0.29834 0.29429 0)
# Probe 838 (0.26695 0.31722 0)
# Probe 839 (0.2332 0.30673 0)
# Probe 840 (0.23937 0.34062 0)
# Probe 841 (0.33335 0.27461 0)
# Probe 842 (0.46362 0.2568 0)
# Probe 843 (0.50305 0.69246 0)
# Probe 844 (0.32684 0.55416 0)
# Probe 845 (0.31612 0.55522 0)
# Probe 846 (0.3176 0.57293 0)
# Probe 847 (0.5958 0.24646 0)
# Probe 848 (0.47475 0.04223 0)
# Probe 849 (0.45065 0.09102 0)
# Probe 850 (0.40238 0.0844 0)
# Probe 851 (0.37882 0.04433 0)
# Probe 852 (0.35085 0.09012 0)
# Probe 853 (0.32607 0.04423 0)
# Probe 854 (0.29894 0.08465 0)
# Probe 855 (0.25193 0.08404 0)
# Probe 856 (0.2762 0.13006 0)
# Probe 857 (0.49789 0.08393 0)
# Probe 858 (0.54456 0.08448 0)
# Probe 859 (0.57203 0.04479 0)
# Probe 860 (0.62388 0.04443 0)
# Probe 861 (0.64489 0.08555 0)
# Probe 862 (0.22711 0.0427 0)
# Probe 863 (0.20515 0.08499 0)
# Probe 864 (0.35504 0.69732 0)
# Probe 865 (0.34483 0.70267 0)
# Probe 866 (0.34385 0.71781 0)
# Probe 867 (0.25896 0.8656 0)
# Probe 868 (0.25679 0.68385 0)
# Probe 869 (0.31465 0.58317 0)
# Probe 870 (0.30971 0.60523 0)
# Probe 871 (0.17554 0.95936 0)
# Probe 872 (0.15375 0.91186 0)
# Probe 873 (0.10051 0.91818 0)
# Probe 874 (0.32196 0.65637 0)
# Probe 875 (0.31423 0.66538 0)
# Probe 876 (0.5888 0.44219 0)
# Probe 877 (0.80567 0.75861 0)
# Probe 878 (0.04207 0.82506 0)
# Probe 879 (0.08159 0.80008 0)
# Probe 880 (0.08351 0.75745 0)
# Probe 881 (0.11627 0.77596 0)
# Probe 882 (0.11856 0.7364 0)
# Probe 883 (0.08608 0.71665 0)
# Probe 884 (0.12204 0.69866 0)
# Probe 885 (0.08966 0.67789 0)
# Probe 886 (0.12314 0.66 0)
# Probe 887 (0.15267 0.71852 0)
# Probe 888 (0.08956 0.64087 0)
# Probe 889 (0.1215 0.62978 0)
# Probe 890 (0.15478 0.63945 0)
# Probe 891 (0.15382 0.67767 0)
# Probe 892 (0.05388 0.69475 0)
# Probe 893 (0.08489 0.85 0)
# Probe 894 (0.12327 0.87449 0)
# Probe 895 (0.53252 0.64374 0)
# Probe 896 (0.45648 0.71232 0)
# Probe 897 (0.46553 0.71906 0)
# Probe 898 (0.4759 0.71409 0)
# Probe 899 (0.47602 0.70319 0)
# Probe 900 (0.31464 0.63628 0)
# Probe 901 (0.20299 0.33308 0)
# Probe 902 (0.21539 0.37052 0)
# Probe 903 (0.17888 0.38529 0)
# Probe 904 (0.17962 0.42228 0)
# Probe 905 (0.87013 0.63466 0)
# Probe 906 (0.725 0.9567 0)
# Probe 907 (0.74816 0.7093 0)
# Probe 908 (0.95755 0.47648 0)
# Probe 909 (0.59893 0.61343 0)
# Probe 910 (0.69802 0.62296 0)
# Probe 911 (0.0433 0.375 0)
# Probe 912 (0.36425 0.70302 0)
# Probe 913 (0.38346 0.71192 0)
# Probe 914 (0.25636 0.55774 0)
# Probe 915 (0.87381 0.55259 0)
# Probe 916 (0.77607 0.96037 0)
# Probe 917 (0.95719 0.32652 0)
# Probe 918 (0.91813 0.35207 0)
# Probe 919 (0.91701 0.30416 0)
# Probe 920 (0.95812 0.27822 0)
# Probe 921 (0.67275 0.48839 0)
# Probe 922 (0.6768 0.51755 0)
# Probe 923 (0.73385 0.28781 0)
# Probe 924 (0.67557 0.66296 0)
# Probe 925 (0.40455 0.7173 0)
# Probe 926 (0.39734 0.726 0)
# Probe 927 (0.07629 0.95793 0)
# Probe 928 (0.30141 0.33242 0)
# Probe 929 (0.40847 0.49296 0)
# Probe 930 (0.48624 0.70836 0)
# Probe 931 (0.64466 0.44314 0)
# Probe 932 (0.87829 0.67823 0)
# Probe 933 (0.95682 0.42782 0)
# Probe 934 (0.41167 0.36003 0)
# Probe 935 (0.59362 0.08903 0)
# Probe 936 (0.95468 0.87263 0)
# Probe 937 (0.77065 0.04386 0)
# Probe 938 (0.1309 0.04127 0)
# Probe 939 (0.42595 0.37813 0)
# Probe 940 (0.65973 0.16492 0)
# Probe 941 (0.22961 0.12285 0)
# Probe 942 (0.25513 0.37256 0)
# Probe 943 (0.04319 0.1252 0)
# Probe 944 (0.87537 0.95587 0)
# Probe 945 (0.89449 0.91266 0)
# Probe 946 (0.85141 0.91547 0)
# Probe 947 (0.87351 0.03935 0)
# Probe 948 (0.74944 0.36653 0)
# Probe 949 (0.53948 0.73207 0)
# Probe 950 (0.51199 0.51526 0)
# Probe 951 (0.5651 0.44971 0)
# Probe 952 (0.80226 0.91514 0)
# Probe 953 (0.34201 0.45317 0)
# Probe 954 (0.57152 0.29745 0)
# Probe 955 (0.54124 0.294 0)
# Probe 956 (0.32747 0.73006 0)
# Probe 957 (0.22922 0.89313 0)
# Probe 958 (0.59437 0.83498 0)
# Probe 959 (0.62724 0.81696 0)
# Probe 960 (0.69794 0.26191 0)
# Probe 961 (0.37242 0.28137 0)
# Probe 962 (0.43038 0.27721 0)
# Probe 963 (0.83307 0.87261 0)
# Probe 964 (0.45436 0.72382 0)
# Probe 965 (0.34922 0.13308 0)
# Probe 966 (0.28759 0.84283 0)
# Probe 967 (0.25457 0.82807 0)
# Probe 968 (0.30618 0.74042 0)
# Probe 969 (0.45401 0.49708 0)
# Probe 970 (0.45065 0.48574 0)
# Probe 971 (0.61358 0.42562 0)
# Probe 972 (0.15528 0.28217 0)