# Probe 0 (0 0 0)
# Probe 1 (1 0 0)
# Probe 2 (1 1 0)
# Probe 3 (0 1 0)
# Probe 4 (0.67 0.74 0)
# Probe 5 (0.57 0.64 0)
# Probe 6 (0.47 0.74 0)
# Probe 7 (0.57 0.84 0)
# Probe 8 (0.05 0 0)
# Probe 9 (0.1 0 0)
# Probe 10 (0.15 0 0)
# Probe 11 (0.2 0 0)
# Probe 12 (0.25 0 0)
# Probe 13 (0.3 0 0)
# Probe 14 (0.35 0 0)
# Probe 15 (0.4 0 0)
# Probe 16 (0.45 0 0)
# Probe 17 (0.5 0 0)
# Probe 18 (0.55 0 0)
# Probe 19 (0.6 0 0)
# Probe 20 (0.65 0 0)
# Probe 21 (0.7 0 0)
# Probe 22 (0.75 0 0)
# Probe 23 (0.8 0 0)
# Probe 24 (0.85 0 0)
# Probe 25 (0.9 0 0)
# Probe 26 (0.95 0 0)
# Probe 27 (1 0.05 0)
# Probe 28 (1 0.1 0)
# Probe 29 (1 0.15 0)
# Probe 30 (1 0.2 0)
# Probe 31 (1 0.25 0)
# Probe 32 (1 0.3 0)
# Probe 33 (1 0.35 0)
# Probe 34 (1 0.4 0)
# Probe 35 (1 0.45 0)
# Probe 36 (1 0.5 0)
# Probe 37 (1 0.55 0)
# Probe 38 (1 0.6 0)
# Probe 39 (1 0.65 0)
# Probe 40 (1 0.7 0)
# Probe 41 (1 0.75 0)
# Probe 42 (1 0.8 0)
# Probe 43 (1 0.85 0)
# Probe 44 (1 0.9 0)
# Probe 45 (1 0.95 0)
# Probe 46 (0.95 1 0)
# Probe 47 (0.9 1 0)
# Probe 48 (0.85 1 0)
# Probe 49 (0.8 1 0)
# Probe 50 (0.75 1 0)
# Probe 51 (0.7 1 0)
# Probe 52 (0.65 1 0)
# Probe 53 (0.6 1 0)
# Probe 54 (0.55 1 0)
# Probe 55 (0.5 1 0)
# Probe 56 (0.45 1 0)
# Probe 57 (0.4 1 0)
# Probe 58 (0.35 1 0)
# Probe 59 (0.3 1 0)
# Probe 60 (0.25 1 0)
# Probe 61 (0.2 1 0)
# Probe 62 (0.15 1 0)
# Probe 63 (0.1 1 0)
# Probe 64 (0.05 1 0)
# Probe 65 (0 0.95 0)
# Probe 66 (0 0.9 0)
# Probe 67 (0 0.85 0)
# Probe 68 (0 0.8 0)
# Probe 69 (0 0.75 0)
# Probe 70 (0 0.7 0)
# Probe 71 (0 0.65 0)
# Probe 72 (0 0.6 0)
# Probe 73 (0 0.55 0)
# Probe 74 (0 0.5 0)
# Probe 75 (0 0.45 0)
# Probe 76 (0 0.4 0)
# Probe 77 (0 0.35 0)
# Probe 78 (0 0.3 0)
# Probe 79 (0 0.25 0)
# Probe 80 (0 0.2 0)
# Probe 81 (0 0.15 0)
# Probe 82 (0 0.1 0)
# Probe 83 (0 0.05 0)
# Probe 84 (0.66952 0.7302 0)
# Probe 85 (0.66808 0.72049 0)
# Probe 86 (0.66569 0.71097 0)
# Probe 87 (0.66239 0.70173 0)
# Probe 88 (0.65819 0.69286 0)
# Probe 89 (0.65315 0.68444 0)
# Probe 90 (0.6473 0.67656 0)
# Probe 91 (0.64071 0.66929 0)
# Probe 92 (0.63344 0.6627 0)
# Probe 93 (0.62556 0.65685 0)
# Probe 94 (0.61714 0.65181 0)
# Probe 95 (0.60827 0.64761 0)
# Probe 96 (0.59903 0.64431 0)
# Probe 97 (0.58951 0.64192 0)
# Probe 98 (0.5798 0.64048 0)
# Probe 99 (0.5602 0.64048 0)
# Probe 100 (0.55049 0.64192 0)
# Probe 101 (0.54097 0.64431 0)
# Probe 102 (0.53173 0.64761 0)
# Probe 103 (0.52286 0.65181 0)
# Probe 104 (0.51444 0.65685 0)
# Probe 105 (0.50656 0.6627 0)
# Probe 106 (0.49929 0.66929 0)
# Probe 107 (0.4927 0.67656 0)
# Probe 108 (0.48685 0.68444 0)
# Probe 109 (0.48181 0.69286 0)
# Probe 110 (0.47761 0.70173 0)
# Probe 111 (0.47431 0.71097 0)
# Probe 112 (0.47192 0.72049 0)
# Probe 113 (0.47048 0.7302 0)
# Probe 114 (0.47048 0.7498 0)
# Probe 115 (0.47192 0.75951 0)
# Probe 116 (0.47431 0.76903 0)
# Probe 117 (0.47761 0.77827 0)
# Probe 118 (0.48181 0.78714 0)
# Probe 119 (0.48685 0.79556 0)
# Probe 120 (0.4927 0.80344 0)
# Probe 121 (0.49929 0.81071 0)
# Probe 122 (0.50656 0.8173 0)
# Probe 123 (0.51444 0.82315 0)
# Probe 124 (0.52286 0.82819 0)
# Probe 125 (0.53173 0.83239 0)
# Probe 126 (0.54097 0.83569 0)
# Probe 127 (0.55049 0.83808 0)
# Probe 128 (0.5602 0.83952 0)
# Probe 129 (0.5798 0.83952 0)
# Probe 130 (0.58951 0.83808 0)
# Probe 131 (0.59903 0.83569 0)
# Probe 132 (0.60827 0.83239 0)
# Probe 133 (0.61714 0.82819 0)
# Probe 134 (0.62556 0.82315 0)
# Probe 135 (0.63344 0.8173 0)
# Probe 136 (0.64071 0.81071 0)
# Probe 137 (0.6473 0.80344 0)
# Probe 138 (0.65315 0.79556 0)
# Probe 139 (0.65819 0.78714 0)
# Probe 140 (0.66239 0.77827 0)
# Probe 141 (0.66569 0.76903 0)
# Probe 142 (0.66808 0.75951 0)
# Probe 143 (0.66952 0.7498 0)
# Probe 144 (0.375 0.0433 0)
# Probe 145 (0.62454 0.05001 0)
# Probe 146 (0.04327 0.41942 0)
# Probe 147 (0.9567 0.375 0)
# Probe 148 (0.04957 0.57691 0)
# Probe 149 (0.04772 0.72719 0)
# Probe 150 (0.96225 0.52415 0)
# Probe 151 (0.275 0.9567 0)
# Probe 152 (0.04005 0.2755 0)
# Probe 153 (0.9567 0.825 0)
# Probe 154 (0.95534 0.67264 0)
# Probe 155 (0.77003 0.04353 0)
# Probe 156 (0.63472 0.82727 0)
# Probe 157 (0.50544 0.82705 0)
# Probe 158 (0.22661 0.0415 0)
# Probe 159 (0.77023 0.95764 0)
# Probe 160 (0.95408 0.23103 0)
# Probe 161 (0.6065 0.84249 0)
# Probe 162 (0.5332 0.84238 0)
# Probe 163 (0.57545 0.8476 0)
# Probe 164 (0.65036 0.81309 0)
# Probe 165 (0.55506 0.84885 0)
# Probe 166 (0.42732 0.96042 0)
# Probe 167 (0.17413 0.95741 0)
# Probe 168 (0.0349 0.82232 0)
# Probe 169 (0.52758 0.0452 0)
# Probe 170 (0.04062 0.17058 0)
# Probe 171 (0.87569 0.0427 0)
# Probe 172 (0.67419 0.96336 0)
# Probe 173 (0.88354 0.95093 0)
# Probe 174 (0.52229 0.96369 0)
# Probe 175 (0.12619 0.04675 0)
# Probe 176 (0.95502 0.12051 0)
# Probe 177 (0.03746 0.92492 0)
# Probe 178 (0.9576 0.9253 0)
# Probe 179 (0.04622 0.07637 0)
# Probe 180 (0.46684 0.95768 0)
# Probe 181 (0.44692 0.9243 0)
# Probe 182 (0.4112 0.92413 0)
# Probe 183 (0.48314 0.80411 0)
# Probe 184 (0.43433 0.89225 0)
# Probe 185 (0.40094 0.89176 0)
# Probe 186 (0.41999 0.86511 0)
# Probe 187 (0.38916 0.86486 0)
# Probe 188 (0.46796 0.77651 0)
# Probe 189 (0.40442 0.84256 0)
# Probe 190 (0.3793 0.84058 0)
# Probe 191 (0.39249 0.82072 0)
# Probe 192 (0.3689 0.81764 0)
# Probe 193 (0.38147 0.80005 0)
# Probe 194 (0.35801 0.79571 0)
# Probe 195 (0.37544 0.77681 0)
# Probe 196 (0.34878 0.77335 0)
# Probe 197 (0.36211 0.75361 0)
# Probe 198 (0.33759 0.75129 0)
# Probe 199 (0.35134 0.73138 0)
# Probe 200 (0.3279 0.72982 0)
# Probe 201 (0.34129 0.70962 0)
# Probe 202 (0.3138 0.70843 0)
# Probe 203 (0.33019 0.6867 0)
# Probe 204 (0.47157 0.69321 0)
# Probe 205 (0.30589 0.68409 0)
# Probe 206 (0.32019 0.6625 0)
# Probe 207 (0.31265 0.74954 0)
# Probe 208 (0.29407 0.66016 0)
# Probe 209 (0.30985 0.6385 0)
# Probe 210 (0.2786 0.68208 0)
# Probe 211 (0.3358 0.64106 0)
# Probe 212 (0.32576 0.61734 0)
# Probe 213 (0.35094 0.61965 0)
# Probe 214 (0.34022 0.59647 0)
# Probe 215 (0.48935 0.66623 0)
# Probe 216 (0.36628 0.59923 0)
# Probe 217 (0.35537 0.57549 0)
# Probe 218 (0.38202 0.5784 0)
# Probe 219 (0.37151 0.55484 0)
# Probe 220 (0.39718 0.55741 0)
# Probe 221 (0.38687 0.53415 0)
# Probe 222 (0.4125 0.53715 0)
# Probe 223 (0.40217 0.51351 0)
# Probe 224 (0.42786 0.51695 0)
# Probe 225 (0.41755 0.49232 0)
# Probe 226 (0.44425 0.49547 0)
# Probe 227 (0.43198 0.46888 0)
# Probe 228 (0.4591 0.47389 0)
# Probe 229 (0.406 0.46741 0)
# Probe 230 (0.44804 0.44582 0)
# Probe 231 (0.47999 0.45552 0)
# Probe 232 (0.54373 0.63524 0)
# Probe 233 (0.46712 0.42358 0)
# Probe 234 (0.49838 0.42793 0)
# Probe 235 (0.51477 0.64736 0)
# Probe 236 (0.34224 0.55174 0)
# Probe 237 (0.48526 0.39843 0)
# Probe 238 (0.5168 0.40298 0)
# Probe 239 (0.52961 0.43159 0)
# Probe 240 (0.54848 0.40675 0)
# Probe 241 (0.56088 0.43561 0)
# Probe 242 (0.57532 0.63175 0)
# Probe 243 (0.5802 0.41023 0)
# Probe 244 (0.59583 0.44368 0)
# Probe 245 (0.45396 0.39484 0)
# Probe 246 (0.61272 0.41453 0)
# Probe 247 (0.62841 0.44428 0)
# Probe 248 (0.29894 0.61372 0)
# Probe 249 (0.56508 0.37996 0)
# Probe 250 (0.47388 0.36956 0)
# Probe 251 (0.43993 0.36503 0)
# Probe 252 (0.64498 0.41839 0)
# Probe 253 (0.65886 0.44908 0)
# Probe 254 (0.60651 0.63796 0)
# Probe 255 (0.45951 0.33763 0)
# Probe 256 (0.42508 0.33371 0)
# Probe 257 (0.46713 0.50214 0)
# Probe 258 (0.46245 0.72407 0)
# Probe 259 (0.67851 0.42234 0)
# Probe 260 (0.6653 0.39004 0)
# Probe 261 (0.6907 0.4542 0)
# Probe 262 (0.57255 0.46467 0)
# Probe 263 (0.44596 0.30534 0)
# Probe 264 (0.41001 0.30141 0)
# Probe 265 (0.38916 0.33081 0)
# Probe 266 (0.37334 0.29821 0)
# Probe 267 (0.3515 0.32889 0)
# Probe 268 (0.33544 0.29464 0)
# Probe 269 (0.31298 0.32633 0)
# Probe 270 (0.67144 0.47984 0)
# Probe 271 (0.70288 0.48475 0)
# Probe 272 (0.69984 0.39399 0)
# Probe 273 (0.68666 0.36063 0)
# Probe 274 (0.68402 0.50962 0)
# Probe 275 (0.63456 0.65295 0)
# Probe 276 (0.71488 0.51495 0)
# Probe 277 (0.73438 0.49012 0)
# Probe 278 (0.74549 0.51988 0)
# Probe 279 (0.42149 0.5605 0)
# Probe 280 (0.72589 0.54403 0)
# Probe 281 (0.75543 0.54899 0)
# Probe 282 (0.73576 0.57141 0)
# Probe 283 (0.6617 0.68531 0)
# Probe 284 (0.29631 0.29167 0)
# Probe 285 (0.46138 0.74508 0)
# Probe 286 (0.6503 0.66722 0)
# Probe 287 (0.76445 0.57727 0)
# Probe 288 (0.7232 0.36454 0)
# Probe 289 (0.70911 0.32968 0)
# Probe 290 (0.37593 0.62099 0)
# Probe 291 (0.74171 0.59998 0)
# Probe 292 (0.43047 0.27171 0)
# Probe 293 (0.46911 0.27615 0)
# Probe 294 (0.27388 0.32311 0)
# Probe 295 (0.77335 0.60485 0)
# Probe 296 (0.75456 0.62546 0)
# Probe 297 (0.29059 0.35886 0)
# Probe 298 (0.34287 0.81677 0)
# Probe 299 (0.3646 0.71279 0)
# Probe 300 (0.70989 0.56597 0)
# Probe 301 (0.78214 0.63097 0)
# Probe 302 (0.7625 0.65488 0)
# Probe 303 (0.67759 0.75612 0)
# Probe 304 (0.67721 0.7241 0)
# Probe 305 (0.67224 0.70361 0)
# Probe 306 (0.67239 0.77658 0)
# Probe 307 (0.79063 0.6573 0)
# Probe 308 (0.77419 0.67923 0)
# Probe 309 (0.7994 0.68231 0)
# Probe 310 (0.78208 0.70325 0)
# Probe 311 (0.76695 0.49448 0)
# Probe 312 (0.80883 0.70811 0)
# Probe 313 (0.79044 0.72938 0)
# Probe 314 (0.74762 0.33472 0)
# Probe 315 (0.73257 0.29794 0)
# Probe 316 (0.69374 0.29308 0)
# Probe 317 (0.25652 0.28613 0)
# Probe 318 (0.25165 0.35565 0)
# Probe 319 (0.26796 0.39136 0)
# Probe 320 (0.31347 0.26171 0)
# Probe 321 (0.71689 0.26048 0)
# Probe 322 (0.67663 0.25554 0)
# Probe 323 (0.45255 0.24064 0)
# Probe 324 (0.80155 0.6101 0)
# Probe 325 (0.49423 0.2441 0)
# Probe 326 (0.81835 0.73469 0)
# Probe 327 (0.79929 0.75623 0)
# Probe 328 (0.75756 0.26589 0)
# Probe 329 (0.22954 0.38819 0)
# Probe 330 (0.2457 0.42358 0)
# Probe 331 (0.72865 0.62098 0)
# Probe 332 (0.70058 0.22217 0)
# Probe 333 (0.65882 0.21757 0)
# Probe 334 (0.77152 0.74929 0)
# Probe 335 (0.78149 0.77667 0)
# Probe 336 (0.80848 0.78414 0)
# Probe 337 (0.3882 0.75331 0)
# Probe 338 (0.78778 0.80554 0)
# Probe 339 (0.81831 0.81282 0)
# Probe 340 (0.21181 0.35241 0)
# Probe 341 (0.75725 0.69786 0)
# Probe 342 (0.84072 0.79024 0)
# Probe 343 (0.75991 0.79468 0)
# Probe 344 (0.20749 0.42037 0)
# Probe 345 (0.22438 0.4551 0)
# Probe 346 (0.75988 0.36945 0)
# Probe 347 (0.78673 0.33903 0)
# Probe 348 (0.80015 0.37608 0)
# Probe 349 (0.26626 0.65655 0)
# Probe 350 (0.24926 0.68189 0)
# Probe 351 (0.23608 0.65286 0)
# Probe 352 (0.21766 0.67959 0)
# Probe 353 (0.20337 0.64994 0)
# Probe 354 (0.2322 0.70924 0)
# Probe 355 (0.19859 0.70666 0)
# Probe 356 (0.2151 0.73851 0)
# Probe 357 (0.22309 0.62235 0)
# Probe 358 (0.4793 0.20735 0)
# Probe 359 (0.43616 0.20406 0)
# Probe 360 (0.18889 0.61892 0)
# Probe 361 (0.17426 0.64521 0)
# Probe 362 (0.18546 0.45257 0)
# Probe 363 (0.65402 0.50481 0)
# Probe 364 (0.78506 0.55517 0)
# Probe 365 (0.76689 0.82565 0)
# Probe 366 (0.73971 0.81861 0)
# Probe 367 (0.37621 0.51041 0)
# Probe 368 (0.35878 0.86348 0)
# Probe 369 (0.81447 0.66378 0)
# Probe 370 (0.20917 0.59245 0)
# Probe 371 (0.2617 0.45803 0)
# Probe 372 (0.17808 0.73544 0)
# Probe 373 (0.19644 0.77002 0)
# Probe 374 (0.46489 0.89797 0)
# Probe 375 (0.63239 0.25608 0)
# Probe 376 (0.61667 0.21421 0)
# Probe 377 (0.68365 0.1829 0)
# Probe 378 (0.72664 0.18793 0)
# Probe 379 (0.74653 0.84542 0)
# Probe 380 (0.71824 0.83604 0)
# Probe 381 (0.41769 0.82199 0)
# Probe 382 (0.83747 0.71243 0)
# Probe 383 (0.30403 0.3974 0)
# Probe 384 (0.17416 0.58689 0)
# Probe 385 (0.77638 0.85978 0)
# Probe 386 (0.82776 0.34498 0)
# Probe 387 (0.46065 0.17119 0)
# Probe 388 (0.16802 0.41684 0)
# Probe 389 (0.73202 0.79063 0)
# Probe 390 (0.50598 0.17024 0)
# Probe 391 (0.72479 0.86465 0)
# Probe 392 (0.70094 0.8567 0)
# Probe 393 (0.41903 0.16651 0)
# Probe 394 (0.50688 0.28106 0)
# Probe 395 (0.85156 0.82206 0)
# Probe 396 (0.84305 0.38299 0)
# Probe 397 (0.24093 0.48803 0)
# Probe 398 (0.15723 0.76722 0)
# Probe 399 (0.1749 0.80182 0)
# Probe 400 (0.21448 0.80355 0)
# Probe 401 (0.42172 0.39054 0)
# Probe 402 (0.44798 0.13182 0)
# Probe 403 (0.65095 0.35753 0)
# Probe 404 (0.27699 0.49033 0)
# Probe 405 (0.19336 0.83651 0)
# Probe 406 (0.23223 0.83709 0)
# Probe 407 (0.70947 0.14745 0)
# Probe 408 (0.75382 0.15275 0)
# Probe 409 (0.14714 0.44943 0)
# Probe 410 (0.37648 0.9172 0)
# Probe 411 (0.69365 0.83475 0)
# Probe 412 (0.66269 0.79556 0)
# Probe 413 (0.67994 0.85025 0)
# Probe 414 (0.68323 0.87373 0)
# Probe 415 (0.65932 0.86106 0)
# Probe 416 (0.15249 0.83587 0)
# Probe 417 (0.25723 0.51968 0)
# Probe 418 (0.16405 0.48581 0)
# Probe 419 (0.12062 0.48104 0)
# Probe 420 (0.66541 0.53158 0)
# Probe 421 (0.63917 0.52815 0)
# Probe 422 (0.64806 0.55093 0)
# Probe 423 (0.62545 0.54825 0)
# Probe 424 (0.63294 0.57141 0)
# Probe 425 (0.61232 0.56598 0)
# Probe 426 (0.60399 0.54675 0)
# Probe 427 (0.59237 0.56368 0)
# Probe 428 (0.58352 0.5455 0)
# Probe 429 (0.57238 0.56198 0)
# Probe 430 (0.56348 0.54436 0)
# Probe 431 (0.55246 0.56039 0)
# Probe 432 (0.5434 0.54259 0)
# Probe 433 (0.53219 0.559 0)
# Probe 434 (0.56222 0.57753 0)
# Probe 435 (0.60041 0.58195 0)
# Probe 436 (0.59481 0.52801 0)
# Probe 437 (0.52288 0.54092 0)
# Probe 438 (0.51216 0.55818 0)
# Probe 439 (0.5204 0.57619 0)
# Probe 440 (0.50172 0.57491 0)
# Probe 441 (0.50859 0.59141 0)
# Probe 442 (0.49149 0.59011 0)
# Probe 443 (0.49882 0.60538 0)
# Probe 444 (0.48235 0.60438 0)
# Probe 445 (0.48448 0.57237 0)
# Probe 446 (0.48983 0.61866 0)
# Probe 447 (0.47361 0.61807 0)
# Probe 448 (0.46471 0.60277 0)
# Probe 449 (0.45654 0.61752 0)
# Probe 450 (0.46636 0.63334 0)
# Probe 451 (0.44858 0.63217 0)
# Probe 452 (0.456 0.64639 0)
# Probe 453 (0.44002 0.646 0)
# Probe 454 (0.43959 0.61857 0)
# Probe 455 (0.44749 0.65974 0)
# Probe 456 (0.43145 0.65954 0)
# Probe 457 (0.43933 0.67312 0)
# Probe 458 (0.42305 0.67333 0)
# Probe 459 (0.433 0.68839 0)
# Probe 460 (0.53323 0.52332 0)
# Probe 461 (0.4144 0.68755 0)
# Probe 462 (0.42276 0.70178 0)
# Probe 463 (0.40574 0.6723 0)
# Probe 464 (0.51474 0.60656 0)
# Probe 465 (0.65487 0.57203 0)
# Probe 466 (0.64298 0.58911 0)
# Probe 467 (0.66127 0.59129 0)
# Probe 468 (0.6491 0.60583 0)
# Probe 469 (0.66724 0.60898 0)
# Probe 470 (0.63265 0.60372 0)
# Probe 471 (0.42452 0.6438 0)
# Probe 472 (0.65391 0.62169 0)
# Probe 473 (0.6711 0.62825 0)
# Probe 474 (0.25259 0.8063 0)
# Probe 475 (0.27 0.83838 0)
# Probe 476 (0.81351 0.41637 0)
# Probe 477 (0.85842 0.42186 0)
# Probe 478 (0.66539 0.1426 0)
# Probe 479 (0.13963 0.73158 0)
# Probe 480 (0.43848 0.70197 0)
# Probe 481 (0.42999 0.71523 0)
# Probe 482 (0.41507 0.71569 0)
# Probe 483 (0.42323 0.72898 0)
# Probe 484 (0.75567 0.46262 0)
# Probe 485 (0.29675 0.46171 0)
# Probe 486 (0.8756 0.79687 0)
# Probe 487 (0.83379 0.45365 0)
# Probe 488 (0.87366 0.45988 0)
# Probe 489 (0.85063 0.49092 0)
# Probe 490 (0.53062 0.25008 0)
# Probe 491 (0.54398 0.28655 0)
# Probe 492 (0.68481 0.61288 0)
# Probe 493 (0.39426 0.20069 0)
# Probe 494 (0.37697 0.16258 0)
# Probe 495 (0.69104 0.62973 0)
# Probe 496 (0.67941 0.64393 0)
# Probe 497 (0.69717 0.64803 0)
# Probe 498 (0.68457 0.65941 0)
# Probe 499 (0.70094 0.66367 0)
# Probe 500 (0.68705 0.67586 0)
# Probe 501 (0.70515 0.6792 0)
# Probe 502 (0.71411 0.66762 0)
# Probe 503 (0.25046 0.87012 0)
# Probe 504 (0.28853 0.87062 0)
# Probe 505 (0.6919 0.105 0)
# Probe 506 (0.86962 0.35025 0)
# Probe 507 (0.85338 0.31015 0)
# Probe 508 (0.89752 0.31615 0)
# Probe 509 (0.88018 0.27442 0)
# Probe 510 (0.66491 0.88924 0)
# Probe 511 (0.64268 0.88184 0)
# Probe 512 (0.69189 0.90084 0)
# Probe 513 (0.11726 0.76437 0)
# Probe 514 (0.31083 0.49381 0)
# Probe 515 (0.33036 0.46622 0)
# Probe 516 (0.49862 0.53952 0)
# Probe 517 (0.46274 0.65966 0)
# Probe 518 (0.2487 0.73879 0)
# Probe 519 (0.12927 0.41212 0)
# Probe 520 (0.20202 0.55639 0)
# Probe 521 (0.37042 0.36012 0)
# Probe 522 (0.52228 0.31647 0)
# Probe 523 (0.62766 0.50562 0)
# Probe 524 (0.6463 0.90698 0)
# Probe 525 (0.62034 0.8955 0)
# Probe 526 (0.69219 0.69244 0)
# Probe 527 (0.70978 0.69486 0)
# Probe 528 (0.69787 0.70958 0)
# Probe 529 (0.71462 0.71057 0)
# Probe 530 (0.70451 0.72348 0)
# Probe 531 (0.71969 0.7256 0)
# Probe 532 (0.70866 0.73809 0)
# Probe 533 (0.72487 0.74154 0)
# Probe 534 (0.71329 0.75403 0)
# Probe 535 (0.62646 0.92563 0)
# Probe 536 (0.5992 0.91602 0)
# Probe 537 (0.59341 0.88936 0)
# Probe 538 (0.57397 0.90595 0)
# Probe 539 (0.15956 0.5524 0)
# Probe 540 (0.13811 0.58463 0)
# Probe 541 (0.77115 0.19413 0)
# Probe 542 (0.79885 0.15832 0)
# Probe 543 (0.81531 0.19696 0)
# Probe 544 (0.84501 0.16155 0)
# Probe 545 (0.39664 0.68779 0)
# Probe 546 (0.38719 0.67201 0)
# Probe 547 (0.43885 0.73049 0)
# Probe 548 (0.4309 0.74315 0)
# Probe 549 (0.2421 0.59882 0)
# Probe 550 (0.73574 0.72975 0)
# Probe 551 (0.88665 0.83225 0)
# Probe 552 (0.86277 0.85786 0)
# Probe 553 (0.82674 0.12157 0)
# Probe 554 (0.63583 0.86222 0)
# Probe 555 (0.73242 0.75953 0)
# Probe 556 (0.57102 0.87907 0)
# Probe 557 (0.55199 0.89543 0)
# Probe 558 (0.67709 0.82976 0)
# Probe 559 (0.68709 0.8166 0)
# Probe 560 (0.28705 0.80786 0)
# Probe 561 (0.15051 0.37819 0)
# Probe 562 (0.10848 0.37439 0)
# Probe 563 (0.13077 0.33806 0)
# Probe 564 (0.17149 0.8739 0)
# Probe 565 (0.12896 0.87262 0)
# Probe 566 (0.41638 0.74352 0)
# Probe 567 (0.42476 0.75669 0)
# Probe 568 (0.44067 0.75642 0)
# Probe 569 (0.4337 0.77047 0)
# Probe 570 (0.41751 0.77154 0)
# Probe 571 (0.42764 0.78496 0)
# Probe 572 (0.44494 0.7825 0)
# Probe 573 (0.43822 0.7975 0)
# Probe 574 (0.45402 0.79599 0)
# Probe 575 (0.44812 0.80977 0)
# Probe 576 (0.12127 0.55033 0)
# Probe 577 (0.90082 0.42713 0)
# Probe 578 (0.5763 0.93518 0)
# Probe 579 (0.55957 0.3203 0)
# Probe 580 (0.89871 0.8702 0)
# Probe 581 (0.86298 0.76538 0)
# Probe 582 (0.89967 0.76946 0)
# Probe 583 (0.88768 0.73372 0)
# Probe 584 (0.87214 0.12644 0)
# Probe 585 (0.89168 0.1707 0)
# Probe 586 (0.88801 0.49753 0)
# Probe 587 (0.86289 0.52869 0)
# Probe 588 (0.92745 0.74264 0)
# Probe 589 (0.35225 0.19582 0)
# Probe 590 (0.33395 0.15823 0)
# Probe 591 (0.30898 0.19208 0)
# Probe 592 (0.29044 0.15421 0)
# Probe 593 (0.26476 0.19045 0)
# Probe 594 (0.24515 0.15078 0)
# Probe 595 (0.21922 0.18738 0)
# Probe 596 (0.1987 0.14591 0)
# Probe 597 (0.17336 0.18327 0)
# Probe 598 (0.15318 0.14091 0)
# Probe 599 (0.193 0.22511 0)
# Probe 600 (0.14718 0.22111 0)
# Probe 601 (0.31809 0.11891 0)
# Probe 602 (0.16774 0.26229 0)
# Probe 603 (0.39761 0.65493 0)
# Probe 604 (0.12414 0.25819 0)
# Probe 605 (0.37978 0.65567 0)
# Probe 606 (0.36656 0.67117 0)
# Probe 607 (0.8376 0.27137 0)
# Probe 608 (0.58136 0.29382 0)
# Probe 609 (0.66965 0.65649 0)
# Probe 610 (0.59781 0.32383 0)
# Probe 611 (0.08604 0.33461 0)
# Probe 612 (0.54906 0.87436 0)
# Probe 613 (0.53143 0.88668 0)
# Probe 614 (0.17851 0.10762 0)
# Probe 615 (0.52881 0.86514 0)
# Probe 616 (0.51105 0.87934 0)
# Probe 617 (0.51044 0.86015 0)
# Probe 618 (0.51341 0.90113 0)
# Probe 619 (0.4933 0.87087 0)
# Probe 620 (0.494 0.85061 0)
# Probe 621 (0.4764 0.86253 0)
# Probe 622 (0.47362 0.84283 0)
# Probe 623 (0.45773 0.85659 0)
# Probe 624 (0.46247 0.80737 0)
# Probe 625 (0.45763 0.82176 0)
# Probe 626 (0.47767 0.92146 0)
# Probe 627 (0.69684 0.74981 0)
# Probe 628 (0.70028 0.76484 0)
# Probe 629 (0.4729 0.81909 0)
# Probe 630 (0.37293 0.23242 0)
# Probe 631 (0.72651 0.69809 0)
# Probe 632 (0.58869 0.87152 0)
# Probe 633 (0.60642 0.8718 0)
# Probe 634 (0.67488 0.57668 0)
# Probe 635 (0.10115 0.21907 0)
# Probe 636 (0.11113 0.83479 0)
# Probe 637 (0.08852 0.87246 0)
# Probe 638 (0.10717 0.9124 0)
# Probe 639 (0.73977 0.64457 0)
# Probe 640 (0.71667 0.80961 0)
# Probe 641 (0.71001 0.78931 0)
# Probe 642 (0.82616 0.52271 0)
# Probe 643 (0.84122 0.56035 0)
# Probe 644 (0.876 0.56513 0)
# Probe 645 (0.85329 0.59379 0)
# Probe 646 (0.88843 0.60008 0)
# Probe 647 (0.86498 0.62886 0)
# Probe 648 (0.90168 0.63423 0)
# Probe 649 (0.8796 0.6611 0)
# Probe 650 (0.92627 0.60688 0)
# Probe 651 (0.27319 0.77675 0)
# Probe 652 (0.41055 0.7871 0)
# Probe 653 (0.74502 0.6682 0)
# Probe 654 (0.67194 0.66876 0)
# Probe 655 (0.65515 0.84558 0)
# Probe 656 (0.92489 0.27742 0)
# Probe 657 (0.64612 0.09865 0)
# Probe 658 (0.62147 0.13783 0)
# Probe 659 (0.59993 0.09271 0)
# Probe 660 (0.57608 0.13317 0)
# Probe 661 (0.43955 0.82439 0)
# Probe 662 (0.67275 0.81516 0)
# Probe 663 (0.68122 0.80043 0)
# Probe 664 (0.67987 0.6879 0)
# Probe 665 (0.69416 0.54035 0)
# Probe 666 (0.71623 0.58865 0)
# Probe 667 (0.22067 0.52002 0)
# Probe 668 (0.23792 0.54973 0)
# Probe 669 (0.27437 0.54935 0)
# Probe 670 (0.86277 0.24294 0)
# Probe 671 (0.46678 0.79569 0)
# Probe 672 (0.63764 0.61825 0)
# Probe 673 (0.62237 0.61581 0)
# Probe 674 (0.62935 0.62901 0)
# Probe 675 (0.61719 0.5999 0)
# Probe 676 (0.60729 0.61571 0)
# Probe 677 (0.643 0.63302 0)
# Probe 678 (0.65551 0.63859 0)
# Probe 679 (0.27309 0.91078 0)
# Probe 680 (0.30788 0.90282 0)
# Probe 681 (0.23045 0.90299 0)
# Probe 682 (0.09764 0.7283 0)
# Probe 683 (0.1211 0.69491 0)
# Probe 684 (0.08095 0.69013 0)
# Probe 685 (0.10657 0.65542 0)
# Probe 686 (0.06386 0.65108 0)
# Probe 687 (0.08258 0.6169 0)
# Probe 688 (0.55329 0.08851 0)
# Probe 689 (0.71948 0.95648 0)
# Probe 690 (0.74682 0.92387 0)
# Probe 691 (0.78677 0.91929 0)
# Probe 692 (0.81385 0.95376 0)
# Probe 693 (0.82764 0.90809 0)
# Probe 694 (0.48887 0.83553 0)
# Probe 695 (0.53018 0.12971 0)
# Probe 696 (0.92297 0.70442 0)
# Probe 697 (0.06533 0.37305 0)
# Probe 698 (0.5366 0.3508 0)
# Probe 699 (0.58041 0.57906 0)
# Probe 700 (0.56976 0.59327 0)
# Probe 701 (0.55346 0.59235 0)
# Probe 702 (0.56104 0.60629 0)
# Probe 703 (0.57605 0.60695 0)
# Probe 704 (0.54633 0.60605 0)
# Probe 705 (0.55336 0.61699 0)
# Probe 706 (0.54082 0.61733 0)
# Probe 707 (0.53837 0.59368 0)
# Probe 708 (0.56736 0.61776 0)
# Probe 709 (0.62073 0.29735 0)
# Probe 710 (0.60089 0.60057 0)
# Probe 711 (0.5054 0.61945 0)
# Probe 712 (0.49729 0.6313 0)
# Probe 713 (0.51986 0.6198 0)
# Probe 714 (0.51158 0.63081 0)
# Probe 715 (0.5248 0.63239 0)
# Probe 716 (0.59055 0.61172 0)
# Probe 717 (0.59604 0.62474 0)
# Probe 718 (0.67975 0.05021 0)
# Probe 719 (0.72548 0.06963 0)
# Probe 720 (0.37468 0.73335 0)
# Probe 721 (0.3858 0.71535 0)
# Probe 722 (0.39336 0.73225 0)
# Probe 723 (0.07551 0.7646 0)
# Probe 724 (0.76703 0.72188 0)
# Probe 725 (0.69621 0.73442 0)
# Probe 726 (0.31722 0.43505 0)
# Probe 727 (0.35054 0.43858 0)
# Probe 728 (0.35931 0.46803 0)
# Probe 729 (0.23805 0.77232 0)
# Probe 730 (0.48221 0.63091 0)
# Probe 731 (0.4894 0.64294 0)
# Probe 732 (0.95143 0.32175 0)
# Probe 733 (0.46999 0.64819 0)
# Probe 734 (0.4775 0.66096 0)
# Probe 735 (0.46976 0.67256 0)
# Probe 736 (0.45514 0.6726 0)
# Probe 737 (0.44865 0.68607 0)
# Probe 738 (0.4528 0.70028 0)
# Probe 739 (0.46342 0.68326 0)
# Probe 740 (0.70592 0.61858 0)
# Probe 741 (0.42782 0.8427 0)
# Probe 742 (0.61753 0.58347 0)
# Probe 743 (0.59118 0.24229 0)
# Probe 744 (0.57312 0.20659 0)
# Probe 745 (0.74762 0.77455 0)
# Probe 746 (0.78776 0.46938 0)
# Probe 747 (0.77807 0.43641 0)
# Probe 748 (0.74427 0.43125 0)
# Probe 749 (0.38384 0.44371 0)
# Probe 750 (0.37019 0.41287 0)
# Probe 751 (0.417 0.44134 0)
# Probe 752 (0.32584 0.87006 0)
# Probe 753 (0.30729 0.83751 0)
# Probe 754 (0.58526 0.62329 0)
# Probe 755 (0.54252 0.45964 0)
# Probe 756 (0.55401 0.48524 0)
# Probe 757 (0.52577 0.48145 0)
# Probe 758 (0.5836 0.4914 0)
# Probe 759 (0.56503 0.50739 0)
# Probe 760 (0.5968 0.47073 0)
# Probe 761 (0.51236 0.45616 0)
# Probe 762 (0.49934 0.48193 0)
# Probe 763 (0.51246 0.50477 0)
# Probe 764 (0.3908 0.60138 0)
# Probe 765 (0.39983 0.62314 0)
# Probe 766 (0.41128 0.6037 0)
# Probe 767 (0.40754 0.58136 0)
# Probe 768 (0.43081 0.58178 0)
# Probe 769 (0.44392 0.56399 0)
# Probe 770 (0.45308 0.58431 0)
# Probe 771 (0.5607 0.86165 0)
# Probe 772 (0.29201 0.52137 0)
# Probe 773 (0.30751 0.55022 0)
# Probe 774 (0.29384 0.57976 0)
# Probe 775 (0.32623 0.52464 0)
# Probe 776 (0.34324 0.49928 0)
# Probe 777 (0.50573 0.65306 0)
# Probe 778 (0.43651 0.5409 0)
# Probe 779 (0.45932 0.54582 0)
# Probe 780 (0.45202 0.52191 0)
# Probe 781 (0.47611 0.52969 0)
# Probe 782 (0.12742 0.09927 0)
# Probe 783 (0.10726 0.14238 0)
# Probe 784 (0.28171 0.74308 0)
# Probe 785 (0.55422 0.63324 0)
# Probe 786 (0.56595 0.63017 0)
# Probe 787 (0.4822 0.67417 0)
# Probe 788 (0.49736 0.65976 0)
# Probe 789 (0.46581 0.70325 0)
# Probe 790 (0.47594 0.68342 0)
# Probe 791 (0.9382 0.78084 0)
# Probe 792 (0.61615 0.64154 0)
# Probe 793 (0.46487 0.71367 0)
# Probe 794 (0.45566 0.71774 0)
# Probe 795 (0.46118 0.73474 0)
# Probe 796 (0.45117 0.73902 0)
# Probe 797 (0.55244 0.17051 0)
# Probe 798 (0.21282 0.27104 0)
# Probe 799 (0.18982 0.30633 0)
# Probe 800 (0.62567 0.64727 0)
# Probe 801 (0.64294 0.65952 0)
# Probe 802 (0.65589 0.65414 0)
# Probe 803 (0.2245 0.95245 0)
# Probe 804 (0.61596 0.62963 0)
# Probe 805 (0.63914 0.47481 0)
# Probe 806 (0.66875 0.69317 0)
# Probe 807 (0.46259 0.75581 0)
# Probe 808 (0.37722 0.95874 0)
# Probe 809 (0.34653 0.93891 0)
# Probe 810 (0.67823 0.7352 0)
# Probe 811 (0.67597 0.71388 0)
# Probe 812 (0.68578 0.71772 0)
# Probe 813 (0.68484 0.70612 0)
# Probe 814 (0.67842 0.746 0)
# Probe 815 (0.4647 0.7664 0)
# Probe 816 (0.454 0.76249 0)
# Probe 817 (0.65967 0.67538 0)
# Probe 818 (0.30486 0.784 0)
# Probe 819 (0.65669 0.80447 0)
# Probe 820 (0.64298 0.82057 0)
# Probe 821 (0.6531 0.82332 0)
# Probe 822 (0.48995 0.81245 0)
# Probe 823 (0.332 0.36681 0)
# Probe 824 (0.94966 0.87475 0)
# Probe 825 (0.39955 0.77218 0)
# Probe 826 (0.57593 0.04511 0)
# Probe 827 (0.66798 0.78631 0)
# Probe 828 (0.67849 0.78609 0)
# Probe 829 (0.68708 0.77418 0)
# Probe 830 (0.67619 0.76632 0)
# Probe 831 (0.28882 0.22663 0)
# Probe 832 (0.95994 0.47813 0)
# Probe 833 (0.95056 0.42754 0)
# Probe 834 (0.54134 0.57759 0)
# Probe 835 (0.62572 0.83296 0)
# Probe 836 (0.63511 0.83742 0)
# Probe 837 (0.62627 0.84631 0)
# Probe 838 (0.2449 0.23563 0)
# Probe 839 (0.51365 0.83365 0)
# Probe 840 (0.49758 0.81998 0)
# Probe 841 (0.12662 0.95642 0)
# Probe 842 (0.18197 0.5198 0)
# Probe 843 (0.59653 0.8456 0)
# Probe 844 (0.60609 0.85423 0)
# Probe 845 (0.6166 0.83889 0)
# Probe 846 (0.04252 0.52635 0)
# Probe 847 (0.04184 0.47492 0)
# Probe 848 (0.08134 0.45511 0)
# Probe 849 (0.54369 0.84584 0)
# Probe 850 (0.52315 0.83868 0)
# Probe 851 (0.50191 0.83702 0)
# Probe 852 (0.69306 0.78851 0)
# Probe 853 (0.5855 0.84799 0)
# Probe 854 (0.49702 0.34381 0)
# Probe 855 (0.5098 0.08926 0)
# Probe 856 (0.47932 0.05247 0)
# Probe 857 (0.4278 0.04683 0)
# Probe 858 (0.39404 0.08576 0)
# Probe 859 (0.34579 0.0822 0)
# Probe 860 (0.89939 0.53522 0)
# Probe 861 (0.7162 0.63869 0)
# Probe 862 (0.42032 0.62504 0)
# Probe 863 (0.58523 0.59551 0)
# Probe 864 (0.32502 0.04112 0)
# Probe 865 (0.27579 0.04107 0)
# Probe 866 (0.2511 0.07985 0)
# Probe 867 (0.25446 0.62751 0)
# Probe 868 (0.35455 0.69042 0)
# Probe 869 (0.34818 0.89651 0)
# Probe 870 (0.32588 0.57223 0)
# Probe 871 (0.64523 0.64833 0)
# Probe 872 (0.48346 0.31008 0)
# Probe 873 (0.9561 0.57587 0)
# Probe 874 (0.52965 0.20782 0)
# Probe 875 (0.2676 0.71052 0)
# Probe 876 (0.56463 0.8493 0)
# Probe 877 (0.47951 0.55243 0)
# Probe 878 (0.07899 0.50079 0)
# Probe 879 (0.04952 0.22088 0)
# Probe 880 (0.82627 0.04215 0)
# Probe 881 (0.95781 0.17262 0)
# Probe 882 (0.37844 0.69663 0)
# Probe 883 (0.17821 0.03979 0)
# Probe 884 (0.03949 0.1257 0)
# Probe 885 (0.92481 0.04222 0)
# Probe 886 (0.53053 0.60831 0)
# Probe 887 (0.52388 0.85083 0)
# Probe 888 (0.86755 0.9025 0)
# Probe 889 (0.81505 0.86695 0)
# Probe 890 (0.91428 0.35869 0)
# Probe 891 (0.28207 0.42803 0)
# Probe 892 (0.69822 0.8037 0)
# Probe 893 (0.64129 0.17881 0)
# Probe 894 (0.90788 0.08981 0)
# Probe 895 (0.71782 0.773 0)
# Probe 896 (0.48902 0.13242 0)
# Probe 897 (0.91321 0.91349 0)
# Probe 898 (0.04105 0.32848 0)
# Probe 899 (0.40601 0.36144 0)
# Probe 900 (0.20281 0.48627 0)
# Probe 901 (0.41351 0.23649 0)
# Probe 902 (0.76373 0.89287 0)
# Probe 903 (0.29124 0.71961 0)
# Probe 904 (0.78536 0.23263 0)
# Probe 905 (0.16033 0.70166 0)
# Probe 906 (0.61904 0.8601 0)
# Probe 907 (0.43837 0.09122 0)
# Probe 908 (0.78081 0.118 0)
# Probe 909 (0.5982 0.17451 0)
# Probe 910 (0.8119 0.3067 0)
# Probe 911 (0.67188 0.32598 0)
# Probe 912 (0.90141 0.23674 0)
# Probe 913 (0.92632 0.95839 0)
# Probe 914 (0.15007 0.914 0)
# Probe 915 (0.6863 0.76252 0)
# Probe 916 (0.73596 0.11176 0)
# Probe 917 (0.5045 0.64213 0)
# Probe 918 (0.12792 0.18075 0)
# Probe 919 (0.46523 0.56805 0)
# Probe 920 (0.42123 0.80089 0)
# Probe 921 (0.74303 0.2272 0)
# Probe 922 (0.33745 0.40821 0)
# Probe 923 (0.44849 0.60245 0)
# Probe 924 (0.67074 0.554 0)
# Probe 925 (0.2345 0.32007 0)
# Probe 926 (0.91652 0.46539 0)
# Probe 927 (0.0756 0.95151 0)
# Probe 928 (0.34417 0.66379 0)
# Probe 929 (0.45116 0.72824 0)
# Probe 930 (0.88478 0.38939 0)
# Probe 931 (0.19086 0.38546 0)
# Probe 932 (0.63125 0.38583 0)
# Probe 933 (0.43506 0.41806 0)
# Probe 934 (0.82801 0.76219 0)
# Probe 935 (0.4564 0.77411 0)
# Probe 936 (0.40375 0.12767 0)
# Probe 937 (0.09062 0.0739 0)
# Probe 938 (0.6023 0.95117 0)
# Probe 939 (0.63453 0.96254 0)
# Probe 940 (0.40685 0.70194 0)
# Probe 941 (0.83305 0.61872 0)
# Probe 942 (0.9584 0.07441 0)
# Probe 943 (0.31652 0.80677 0)
# Probe 944 (0.77178 0.30259 0)
# Probe 945 (0.33615 0.84161 0)
# Probe 946 (0.40852 0.75798 0)
# Probe 947 (0.64574 0.83377 0)
# Probe 948 (0.13464 0.80011 0)
# Probe 949 (0.44064 0.87085 0)
# Probe 950 (0.35772 0.52918 0)
# Probe 951 (0.14298 0.51776 0)
# Probe 952 (0.18543 0.67724 0)
# Probe 953 (0.9133 0.80766 0)
# Probe 954 (0.69411 0.58166 0)
# Probe 955 (0.52352 0.59461 0)
# Probe 956 (0.71351 0.92113 0)
# Probe 957 (0.0439 0.87299 0)
# Probe 958 (0.2831 0.63611 0)
# Probe 959 (0.21187 0.86977 0)
# Probe 960 (0.14834 0.30043 0)
# Probe 961 (0.85274 0.0842 0)
# Probe 962 (0.36311 0.64444 0)
# Probe 963 (0.15505 0.6176 0)
# Probe 964 (0.66149 0.6644 0)
# Probe 965 (0.39185 0.49083 0)
# Probe 966 (0.61619 0.52809 0)
# Probe 967 (0.96087 0.63223 0)
# Probe 968 (0.59713 0.63519 0)
# Probe 969 (0.63443 0.64171 0)
# Probe 970 (0.09039 0.41282 0)
# Probe 971 (0.72306 0.45895 0)