# Probe 0 (0 0 0)
# Probe 1 (1 0 0)
# Probe 2 (1 1 0)
# Probe 3 (0 1 0)
# Probe 4 (0.57 0.72 0)
# Probe 5 (0.47 0.62 0)
# Probe 6 (0.37 0.72 0)
# Probe 7 (0.47 0.82 0)
# Probe 8 (0.05 0 0)
# Probe 9 (0.1 0 0)
# Probe 10 (0.15 0 0)
# Probe 11 (0.2 0 0)
# Probe 12 (0.25 0 0)
# Probe 13 (0.3 0 0)
# Probe 14 (0.35 0 0)
# Probe 15 (0.4 0 0)
# Probe 16 (0.45 0 0)
# Probe 17 (0.5 0 0)
# Probe 18 (0.55 0 0)
# Probe 19 (0.6 0 0)
# Probe 20 (0.65 0 0)
# Probe 21 (0.7 0 0)
# Probe 22 (0.75 0 0)
# Probe 23 (0.8 0 0)
# Probe 24 (0.85 0 0)
# Probe 25 (0.9 0 0)
# Probe 26 (0.95 0 0)
# Probe 27 (1 0.05 0)
# Probe 28 (1 0.1 0)
# Probe 29 (1 0.15 0)
# Probe 30 (1 0.2 0)
# Probe 31 (1 0.25 0)
# Probe 32 (1 0.3 0)
# Probe 33 (1 0.35 0)
# Probe 34 (1 0.4 0)
# Probe 35 (1 0.45 0)
# Probe 36 (1 0.5 0)
# Probe 37 (1 0.55 0)
# Probe 38 (1 0.6 0)
# Probe 39 (1 0.65 0)
# Probe 40 (1 0.7 0)
# Probe 41 (1 0.75 0)
# Probe 42 (1 0.8 0)
# Probe 43 (1 0.85 0)
# Probe 44 (1 0.9 0)
# Probe 45 (1 0.95 0)
# Probe 46 (0.95 1 0)
# Probe 47 (0.9 1 0)
# Probe 48 (0.85 1 0)
# Probe 49 (0.8 1 0)
# Probe 50 (0.75 1 0)
# Probe 51 (0.7 1 0)
# Probe 52 (0.65 1 0)
# Probe 53 (0.6 1 0)
# Probe 54 (0.55 1 0)
# Probe 55 (0.5 1 0)
# Probe 56 (0.45 1 0)
# Probe 57 (0.4 1 0)
# Probe 58 (0.35 1 0)
# Probe 59 (0.3 1 0)
# Probe 60 (0.25 1 0)
# Probe 61 (0.2 1 0)
# Probe 62 (0.15 1 0)
# Probe 63 (0.1 1 0)
# Probe 64 (0.05 1 0)
# Probe 65 (0 0.95 0)
# Probe 66 (0 0.9 0)
# Probe 67 (0 0.85 0)
# Probe 68 (0 0.8 0)
# Probe 69 (0 0.75 0)
# Probe 70 (0 0.7 0)
# Probe 71 (0 0.65 0)
# Probe 72 (0 0.6 0)
# Probe 73 (0 0.55 0)
# Probe 74 (0 0.5 0)
# Probe 75 (0 0.45 0)
# Probe 76 (0 0.4 0)
# Probe 77 (0 0.35 0)
# Probe 78 (0 0.3 0)
# Probe 79 (0 0.25 0)
# Probe 80 (0 0.2 0)
# Probe 81 (0 0.15 0)
# Probe 82 (0 0.1 0)
# Probe 83 (0 0.05 0)
# Probe 84 (0.56952 0.7102 0)
# Probe 85 (0.56808 0.70049 0)
# Probe 86 (0.56569 0.69097 0)
# Probe 87 (0.56239 0.68173 0)
# Probe 88 (0.55819 0.67286 0)
# Probe 89 (0.55315 0.66444 0)
# Probe 90 (0.5473 0.65656 0)
# Probe 91 (0.54071 0.64929 0)
# Probe 92 (0.53344 0.6427 0)
# Probe 93 (0.52556 0.63685 0)
# Probe 94 (0.51714 0.63181 0)
# Probe 95 (0.50827 0.62761 0)
# Probe 96 (0.49903 0.62431 0)
# Probe 97 (0.48951 0.62192 0)
# Probe 98 (0.4798 0.62048 0)
# Probe 99 (0.4602 0.62048 0)
# Probe 100 (0.45049 0.62192 0)
# Probe 101 (0.44097 0.62431 0)
# Probe 102 (0.43173 0.62761 0)
# Probe 103 (0.42286 0.63181 0)
# Probe 104 (0.41444 0.63685 0)
# Probe 105 (0.40656 0.6427 0)
# Probe 106 (0.39929 0.64929 0)
# Probe 107 (0.3927 0.65656 0)
# Probe 108 (0.38685 0.66444 0)
# Probe 109 (0.38181 0.67286 0)
# Probe 110 (0.37761 0.68173 0)
# Probe 111 (0.37431 0.69097 0)
# Probe 112 (0.37192 0.70049 0)
# Probe 113 (0.37048 0.7102 0)
# Probe 114 (0.37048 0.7298 0)
# Probe 115 (0.37192 0.73951 0)
# Probe 116 (0.37431 0.74903 0)
# Probe 117 (0.37761 0.75827 0)
# Probe 118 (0.38181 0.76714 0)
# Probe 119 (0.38685 0.77556 0)
# Probe 120 (0.3927 0.78344 0)
# Probe 121 (0.39929 0.79071 0)
# Probe 122 (0.40656 0.7973 0)
# Probe 123 (0.41444 0.80315 0)
# Probe 124 (0.42286 0.80819 0)
# Probe 125 (0.43173 0.81239 0)
# Probe 126 (0.44097 0.81569 0)
# Probe 127 (0.45049 0.81808 0)
# Probe 128 (0.4602 0.81952 0)
# Probe 129 (0.4798 0.81952 0)
# Probe 130 (0.48951 0.81808 0)
# Probe 131 (0.49903 0.81569 0)
# Probe 132 (0.50827 0.81239 0)
# Probe 133 (0.51714 0.80819 0)
# Probe 134 (0.52556 0.80315 0)
# Probe 135 (0.53344 0.7973 0)
# Probe 136 (0.54071 0.79071 0)
# Probe 137 (0.5473 0.78344 0)
# Probe 138 (0.55315 0.77556 0)
# Probe 139 (0.55819 0.76714 0)
# Probe 140 (0.56239 0.75827 0)
# Probe 141 (0.56569 0.74903 0)
# Probe 142 (0.56808 0.73951 0)
# Probe 143 (0.56952 0.7298 0)
# Probe 144 (0.62273 0.04281 0)
# Probe 145 (0.32146 0.04117 0)
# Probe 146 (0.95743 0.37363 0)
# Probe 147 (0.04522 0.37514 0)
# Probe 148 (0.95847 0.51863 0)
# Probe 149 (0.0433 0.525 0)
# Probe 150 (0.95657 0.77766 0)
# Probe 151 (0.47686 0.0416 0)
# Probe 152 (0.04726 0.77192 0)
# Probe 153 (0.725 0.9567 0)
# Probe 154 (0.53474 0.80729 0)
# Probe 155 (0.22723 0.95819 0)
# Probe 156 (0.41391 0.81355 0)
# Probe 157 (0.77314 0.04651 0)
# Probe 158 (0.04211 0.22344 0)
# Probe 159 (0.5065 0.82213 0)
# Probe 160 (0.4437 0.82554 0)
# Probe 161 (0.47546 0.82849 0)
# Probe 162 (0.95649 0.22526 0)
# Probe 163 (0.62357 0.95659 0)
# Probe 164 (0.32425 0.95725 0)
# Probe 165 (0.17631 0.04468 0)
# Probe 166 (0.82554 0.95434 0)
# Probe 167 (0.03975 0.67532 0)
# Probe 168 (0.95418 0.67522 0)
# Probe 169 (0.04178 0.87499 0)
# Probe 170 (0.87008 0.04115 0)
# Probe 171 (0.52495 0.96695 0)
# Probe 172 (0.42855 0.95869 0)
# Probe 173 (0.96107 0.87023 0)
# Probe 174 (0.04111 0.12821 0)
# Probe 175 (0.13221 0.9522 0)
# Probe 176 (0.95442 0.12471 0)
# Probe 177 (0.92465 0.9578 0)
# Probe 178 (0.07515 0.04241 0)
# Probe 179 (0.4665 0.96079 0)
# Probe 180 (0.49743 0.92439 0)
# Probe 181 (0.44999 0.92453 0)
# Probe 182 (0.41404 0.92167 0)
# Probe 183 (0.43078 0.89557 0)
# Probe 184 (0.40232 0.8923 0)
# Probe 185 (0.41811 0.87109 0)
# Probe 186 (0.39313 0.86497 0)
# Probe 187 (0.44216 0.87223 0)
# Probe 188 (0.37576 0.8877 0)
# Probe 189 (0.36628 0.86348 0)
# Probe 190 (0.38914 0.79304 0)
# Probe 191 (0.34944 0.88326 0)
# Probe 192 (0.34024 0.85902 0)
# Probe 193 (0.3227 0.87832 0)
# Probe 194 (0.31314 0.85356 0)
# Probe 195 (0.37115 0.76538 0)
# Probe 196 (0.33114 0.83656 0)
# Probe 197 (0.30644 0.82617 0)
# Probe 198 (0.28244 0.85356 0)
# Probe 199 (0.27786 0.82265 0)
# Probe 200 (0.29434 0.80159 0)
# Probe 201 (0.27027 0.79523 0)
# Probe 202 (0.36246 0.73641 0)
# Probe 203 (0.25095 0.81577 0)
# Probe 204 (0.24392 0.78835 0)
# Probe 205 (0.26371 0.76861 0)
# Probe 206 (0.23789 0.76117 0)
# Probe 207 (0.25746 0.74274 0)
# Probe 208 (0.36229 0.70425 0)
# Probe 209 (0.23149 0.73468 0)
# Probe 210 (0.25112 0.71644 0)
# Probe 211 (0.22521 0.70827 0)
# Probe 212 (0.2448 0.68939 0)
# Probe 213 (0.2189 0.68169 0)
# Probe 214 (0.23865 0.66258 0)
# Probe 215 (0.37186 0.67333 0)
# Probe 216 (0.21247 0.65478 0)
# Probe 217 (0.2328 0.63624 0)
# Probe 218 (0.25783 0.64485 0)
# Probe 219 (0.25272 0.61902 0)
# Probe 220 (0.22778 0.61023 0)
# Probe 221 (0.24793 0.59243 0)
# Probe 222 (0.2724 0.60302 0)
# Probe 223 (0.26846 0.57639 0)
# Probe 224 (0.39834 0.64101 0)
# Probe 225 (0.24342 0.56601 0)
# Probe 226 (0.26447 0.54888 0)
# Probe 227 (0.28914 0.55957 0)
# Probe 228 (0.28551 0.53292 0)
# Probe 229 (0.30972 0.54263 0)
# Probe 230 (0.30613 0.5171 0)
# Probe 231 (0.32949 0.52673 0)
# Probe 232 (0.3263 0.50157 0)
# Probe 233 (0.34941 0.51112 0)
# Probe 234 (0.3463 0.48608 0)
# Probe 235 (0.36937 0.49558 0)
# Probe 236 (0.36623 0.47039 0)
# Probe 237 (0.38944 0.47982 0)
# Probe 238 (0.38654 0.45463 0)
# Probe 239 (0.41048 0.46407 0)
# Probe 240 (0.40789 0.43885 0)
# Probe 241 (0.43137 0.44843 0)
# Probe 242 (0.38398 0.42591 0)
# Probe 243 (0.42942 0.42232 0)
# Probe 244 (0.45386 0.43177 0)
# Probe 245 (0.47554 0.61165 0)
# Probe 246 (0.45092 0.40373 0)
# Probe 247 (0.4775 0.41477 0)
# Probe 248 (0.47393 0.38532 0)
# Probe 249 (0.50211 0.39679 0)
# Probe 250 (0.50468 0.43073 0)
# Probe 251 (0.52981 0.40952 0)
# Probe 252 (0.53341 0.43911 0)
# Probe 253 (0.55751 0.42105 0)
# Probe 254 (0.56079 0.45039 0)
# Probe 255 (0.51645 0.62194 0)
# Probe 256 (0.58494 0.43277 0)
# Probe 257 (0.58815 0.46207 0)
# Probe 258 (0.58144 0.40195 0)
# Probe 259 (0.49653 0.36591 0)
# Probe 260 (0.61224 0.44486 0)
# Probe 261 (0.61546 0.47388 0)
# Probe 262 (0.30259 0.49133 0)
# Probe 263 (0.44301 0.61457 0)
# Probe 264 (0.44699 0.37571 0)
# Probe 265 (0.63962 0.45639 0)
# Probe 266 (0.64342 0.48601 0)
# Probe 267 (0.54227 0.64047 0)
# Probe 268 (0.66724 0.46838 0)
# Probe 269 (0.67158 0.49888 0)
# Probe 270 (0.66453 0.43769 0)
# Probe 271 (0.69621 0.48035 0)
# Probe 272 (0.69931 0.5117 0)
# Probe 273 (0.67526 0.52979 0)
# Probe 274 (0.70199 0.54243 0)
# Probe 275 (0.67421 0.56018 0)
# Probe 276 (0.56814 0.67361 0)
# Probe 277 (0.70423 0.57219 0)
# Probe 278 (0.23861 0.53859 0)
# Probe 279 (0.43346 0.47344 0)
# Probe 280 (0.53809 0.46741 0)
# Probe 281 (0.68064 0.58813 0)
# Probe 282 (0.70622 0.59984 0)
# Probe 283 (0.68428 0.61521 0)
# Probe 284 (0.70749 0.62662 0)
# Probe 285 (0.57536 0.74609 0)
# Probe 286 (0.57809 0.71456 0)
# Probe 287 (0.68725 0.64142 0)
# Probe 288 (0.70889 0.65256 0)
# Probe 289 (0.68981 0.66691 0)
# Probe 290 (0.71227 0.67776 0)
# Probe 291 (0.69234 0.69255 0)
# Probe 292 (0.7151 0.7026 0)
# Probe 293 (0.69459 0.71784 0)
# Probe 294 (0.56295 0.77564 0)
# Probe 295 (0.71872 0.7268 0)
# Probe 296 (0.69701 0.7439 0)
# Probe 297 (0.72776 0.61769 0)
# Probe 298 (0.65484 0.58018 0)
# Probe 299 (0.72291 0.75404 0)
# Probe 300 (0.74114 0.68847 0)
# Probe 301 (0.55668 0.65533 0)
# Probe 302 (0.42366 0.62203 0)
# Probe 303 (0.49654 0.6149 0)
# Probe 304 (0.72586 0.49321 0)
# Probe 305 (0.57513 0.69367 0)
# Probe 306 (0.38295 0.65544 0)
# Probe 307 (0.55049 0.79317 0)
# Probe 308 (0.37142 0.51932 0)
# Probe 309 (0.699 0.77201 0)
# Probe 310 (0.3128 0.56855 0)
# Probe 311 (0.66465 0.63074 0)
# Probe 312 (0.72528 0.78475 0)
# Probe 313 (0.75093 0.76469 0)
# Probe 314 (0.22237 0.80856 0)
# Probe 315 (0.67065 0.6809 0)
# Probe 316 (0.67371 0.73499 0)
# Probe 317 (0.70063 0.80216 0)
# Probe 318 (0.59068 0.48975 0)
# Probe 319 (0.67296 0.78887 0)
# Probe 320 (0.20877 0.72628 0)
# Probe 321 (0.27182 0.69787 0)
# Probe 322 (0.75367 0.79816 0)
# Probe 323 (0.78094 0.77766 0)
# Probe 324 (0.67559 0.81867 0)
# Probe 325 (0.64896 0.80587 0)
# Probe 326 (0.2163 0.55664 0)
# Probe 327 (0.2112 0.52642 0)
# Probe 328 (0.28144 0.74968 0)
# Probe 329 (0.72941 0.55799 0)
# Probe 330 (0.18612 0.54789 0)
# Probe 331 (0.18106 0.51513 0)
# Probe 332 (0.20703 0.49427 0)
# Probe 333 (0.17535 0.48221 0)
# Probe 334 (0.2029 0.46049 0)
# Probe 335 (0.34244 0.46047 0)
# Probe 336 (0.72192 0.45967 0)
# Probe 337 (0.75419 0.47374 0)
# Probe 338 (0.74901 0.43726 0)
# Probe 339 (0.78285 0.45166 0)
# Probe 340 (0.7786 0.41487 0)
# Probe 341 (0.787 0.48823 0)
# Probe 342 (0.74164 0.40042 0)
# Probe 343 (0.77374 0.37765 0)
# Probe 344 (0.73603 0.36294 0)
# Probe 345 (0.7682 0.33903 0)
# Probe 346 (0.73153 0.3242 0)
# Probe 347 (0.76361 0.29942 0)
# Probe 348 (0.72569 0.28424 0)
# Probe 349 (0.75851 0.25869 0)
# Probe 350 (0.71991 0.24336 0)
# Probe 351 (0.68739 0.26907 0)
# Probe 352 (0.68132 0.2283 0)
# Probe 353 (0.64944 0.25394 0)
# Probe 354 (0.64295 0.21352 0)
# Probe 355 (0.61143 0.23896 0)
# Probe 356 (0.60488 0.19915 0)
# Probe 357 (0.57304 0.22397 0)
# Probe 358 (0.80139 0.31783 0)
# Probe 359 (0.81757 0.46606 0)
# Probe 360 (0.8219 0.50485 0)
# Probe 361 (0.67504 0.18726 0)
# Probe 362 (0.75312 0.21708 0)
# Probe 363 (0.78419 0.8137 0)
# Probe 364 (0.56689 0.18423 0)
# Probe 365 (0.53488 0.20918 0)
# Probe 366 (0.16949 0.44776 0)
# Probe 367 (0.19865 0.42501 0)
# Probe 368 (0.19095 0.67449 0)
# Probe 369 (0.18387 0.64497 0)
# Probe 370 (0.65153 0.83451 0)
# Probe 371 (0.62255 0.8225 0)
# Probe 372 (0.57864 0.26348 0)
# Probe 373 (0.62317 0.79732 0)
# Probe 374 (0.65546 0.29374 0)
# Probe 375 (0.8132 0.79182 0)
# Probe 376 (0.80849 0.75559 0)
# Probe 377 (0.7017 0.83406 0)
# Probe 378 (0.79289 0.23325 0)
# Probe 379 (0.80838 0.38851 0)
# Probe 380 (0.16427 0.411 0)
# Probe 381 (0.19409 0.3882 0)
# Probe 382 (0.23349 0.40616 0)
# Probe 383 (0.22575 0.36578 0)
# Probe 384 (0.18931 0.35026 0)
# Probe 385 (0.22071 0.32741 0)
# Probe 386 (0.25629 0.34276 0)
# Probe 387 (0.25209 0.30484 0)
# Probe 388 (0.28745 0.32086 0)
# Probe 389 (0.28429 0.28221 0)
# Probe 390 (0.24785 0.26554 0)
# Probe 391 (0.28046 0.24243 0)
# Probe 392 (0.31704 0.25954 0)
# Probe 393 (0.24344 0.22496 0)
# Probe 394 (0.31345 0.21953 0)
# Probe 395 (0.34889 0.23674 0)
# Probe 396 (0.18437 0.31129 0)
# Probe 397 (0.34675 0.19628 0)
# Probe 398 (0.38245 0.21369 0)
# Probe 399 (0.35145 0.27678 0)
# Probe 400 (0.38054 0.17265 0)
# Probe 401 (0.31034 0.17849 0)
# Probe 402 (0.81828 0.82885 0)
# Probe 403 (0.29085 0.35796 0)
# Probe 404 (0.62745 0.84924 0)
# Probe 405 (0.60255 0.84016 0)
# Probe 406 (0.65574 0.86526 0)
# Probe 407 (0.78707 0.18914 0)
# Probe 408 (0.23245 0.83808 0)
# Probe 409 (0.19995 0.83052 0)
# Probe 410 (0.60545 0.86439 0)
# Probe 411 (0.57948 0.8507 0)
# Probe 412 (0.52889 0.16879 0)
# Probe 413 (0.1606 0.66683 0)
# Probe 414 (0.15281 0.63428 0)
# Probe 415 (0.13411 0.43499 0)
# Probe 416 (0.58377 0.87914 0)
# Probe 417 (0.55995 0.86784 0)
# Probe 418 (0.78669 0.85166 0)
# Probe 419 (0.15486 0.53627 0)
# Probe 420 (0.85364 0.48129 0)
# Probe 421 (0.8577 0.52063 0)
# Probe 422 (0.82596 0.54391 0)
# Probe 423 (0.86107 0.55977 0)
# Probe 424 (0.82939 0.58246 0)
# Probe 425 (0.86481 0.59851 0)
# Probe 426 (0.83321 0.62024 0)
# Probe 427 (0.84275 0.76958 0)
# Probe 428 (0.837 0.73329 0)
# Probe 429 (0.49696 0.19439 0)
# Probe 430 (0.50312 0.23438 0)
# Probe 431 (0.82926 0.20723 0)
# Probe 432 (0.1913 0.79881 0)
# Probe 433 (0.16653 0.82206 0)
# Probe 434 (0.15773 0.78745 0)
# Probe 435 (0.49072 0.1529 0)
# Probe 436 (0.15234 0.33469 0)
# Probe 437 (0.14654 0.29426 0)
# Probe 438 (0.82426 0.15868 0)
# Probe 439 (0.17553 0.85527 0)
# Probe 440 (0.55914 0.1406 0)
# Probe 441 (0.1307 0.81293 0)
# Probe 442 (0.37997 0.84511 0)
# Probe 443 (0.58149 0.82927 0)
# Probe 444 (0.86823 0.63705 0)
# Probe 445 (0.23306 0.47531 0)
# Probe 446 (0.90142 0.61439 0)
# Probe 447 (0.78023 0.1434 0)
# Probe 448 (0.80268 0.72054 0)
# Probe 449 (0.86743 0.17592 0)
# Probe 450 (0.69707 0.34744 0)
# Probe 451 (0.8725 0.74704 0)
# Probe 452 (0.87822 0.78515 0)
# Probe 453 (0.82295 0.8681 0)
# Probe 454 (0.32078 0.33688 0)
# Probe 455 (0.32152 0.37263 0)
# Probe 456 (0.35577 0.35602 0)
# Probe 457 (0.29508 0.39278 0)
# Probe 458 (0.12671 0.65751 0)
# Probe 459 (0.1167 0.62302 0)
# Probe 460 (0.13669 0.68931 0)
# Probe 461 (0.12167 0.77624 0)
# Probe 462 (0.56214 0.89531 0)
# Probe 463 (0.11275 0.31897 0)
# Probe 464 (0.87162 0.22897 0)
# Probe 465 (0.45885 0.22042 0)
# Probe 466 (0.47248 0.2603 0)
# Probe 467 (0.50823 0.27294 0)
# Probe 468 (0.47849 0.29658 0)
# Probe 469 (0.44484 0.28462 0)
# Probe 470 (0.7997 0.60478 0)
# Probe 471 (0.80396 0.63911 0)
# Probe 472 (0.53825 0.88339 0)
# Probe 473 (0.53773 0.85521 0)
# Probe 474 (0.51701 0.87088 0)
# Probe 475 (0.79004 0.89053 0)
# Probe 476 (0.83091 0.69341 0)
# Probe 477 (0.81526 0.11252 0)
# Probe 478 (0.21013 0.24895 0)
# Probe 479 (0.20451 0.2074 0)
# Probe 480 (0.24019 0.18254 0)
# Probe 481 (0.19985 0.1645 0)
# Probe 482 (0.23343 0.13095 0)
# Probe 483 (0.16371 0.19007 0)
# Probe 484 (0.15848 0.14545 0)
# Probe 485 (0.12191 0.17181 0)
# Probe 486 (0.6099 0.88947 0)
# Probe 487 (0.17851 0.61222 0)
# Probe 488 (0.12846 0.39663 0)
# Probe 489 (0.51374 0.30984 0)
# Probe 490 (0.09863 0.42102 0)
# Probe 491 (0.10431 0.4615 0)
# Probe 492 (0.84876 0.44175 0)
# Probe 493 (0.88683 0.45741 0)
# Probe 494 (0.88239 0.41637 0)
# Probe 495 (0.12656 0.21588 0)
# Probe 496 (0.32333 0.40615 0)
# Probe 497 (0.29897 0.42553 0)
# Probe 498 (0.43111 0.85089 0)
# Probe 499 (0.45035 0.85129 0)
# Probe 500 (0.46348 0.87038 0)
# Probe 501 (0.755 0.87394 0)
# Probe 502 (0.85553 0.84394 0)
# Probe 503 (0.86054 0.88441 0)
# Probe 504 (0.35343 0.9075 0)
# Probe 505 (0.39031 0.95047 0)
# Probe 506 (0.11633 0.12608 0)
# Probe 507 (0.51437 0.84624 0)
# Probe 508 (0.53225 0.83539 0)
# Probe 509 (0.49852 0.85932 0)
# Probe 510 (0.92206 0.43576 0)
# Probe 511 (0.15044 0.75367 0)
# Probe 512 (0.1163 0.74228 0)
# Probe 513 (0.44886 0.3189 0)
# Probe 514 (0.41639 0.30686 0)
# Probe 515 (0.41456 0.271 0)
# Probe 516 (0.47025 0.85037 0)
# Probe 517 (0.49699 0.88099 0)
# Probe 518 (0.11028 0.28319 0)
# Probe 519 (0.55771 0.84843 0)
# Probe 520 (0.54945 0.82455 0)
# Probe 521 (0.07095 0.30315 0)
# Probe 522 (0.41074 0.8501 0)
# Probe 523 (0.42158 0.83375 0)
# Probe 524 (0.40524 0.83325 0)
# Probe 525 (0.89276 0.53647 0)
# Probe 526 (0.60262 0.80742 0)
# Probe 527 (0.60371 0.78773 0)
# Probe 528 (0.62002 0.77601 0)
# Probe 529 (0.60252 0.76918 0)
# Probe 530 (0.61711 0.75746 0)
# Probe 531 (0.63512 0.76355 0)
# Probe 532 (0.63289 0.74479 0)
# Probe 533 (0.61207 0.73981 0)
# Probe 534 (0.62888 0.72714 0)
# Probe 535 (0.61135 0.72211 0)
# Probe 536 (0.62408 0.71059 0)
# Probe 537 (0.60854 0.70579 0)
# Probe 538 (0.62043 0.69488 0)
# Probe 539 (0.60553 0.6899 0)
# Probe 540 (0.61714 0.67944 0)
# Probe 541 (0.60233 0.67435 0)
# Probe 542 (0.6139 0.66408 0)
# Probe 543 (0.59901 0.65895 0)
# Probe 544 (0.61072 0.64854 0)
# Probe 545 (0.59532 0.64319 0)
# Probe 546 (0.60749 0.63284 0)
# Probe 547 (0.59161 0.62716 0)
# Probe 548 (0.6044 0.61617 0)
# Probe 549 (0.58761 0.6105 0)
# Probe 550 (0.60109 0.59891 0)
# Probe 551 (0.58347 0.59298 0)
# Probe 552 (0.59768 0.58111 0)
# Probe 553 (0.57943 0.57469 0)
# Probe 554 (0.56588 0.58726 0)
# Probe 555 (0.56068 0.56891 0)
# Probe 556 (0.549 0.58193 0)
# Probe 557 (0.54436 0.56493 0)
# Probe 558 (0.53245 0.57686 0)
# Probe 559 (0.5282 0.56049 0)
# Probe 560 (0.51633 0.57227 0)
# Probe 561 (0.51192 0.55579 0)
# Probe 562 (0.49938 0.56992 0)
# Probe 563 (0.49557 0.55074 0)
# Probe 564 (0.48283 0.56252 0)
# Probe 565 (0.47894 0.54531 0)
# Probe 566 (0.46624 0.55722 0)
# Probe 567 (0.53847 0.54809 0)
# Probe 568 (0.4912 0.53268 0)
# Probe 569 (0.46219 0.54028 0)
# Probe 570 (0.44944 0.55229 0)
# Probe 571 (0.59318 0.56035 0)
# Probe 572 (0.45396 0.56875 0)
# Probe 573 (0.43738 0.56436 0)
# Probe 574 (0.43258 0.54735 0)
# Probe 575 (0.42033 0.55997 0)
# Probe 576 (0.42535 0.5763 0)
# Probe 577 (0.40889 0.57222 0)
# Probe 578 (0.55286 0.59671 0)
# Probe 579 (0.57511 0.62168 0)
# Probe 580 (0.41339 0.58809 0)
# Probe 581 (0.39734 0.58478 0)
# Probe 582 (0.39255 0.56866 0)
# Probe 583 (0.38117 0.58115 0)
# Probe 584 (0.3861 0.59713 0)
# Probe 585 (0.37017 0.5937 0)
# Probe 586 (0.37545 0.60929 0)
# Probe 587 (0.35998 0.60638 0)
# Probe 588 (0.3646 0.62143 0)
# Probe 589 (0.34937 0.6185 0)
# Probe 590 (0.35397 0.63354 0)
# Probe 591 (0.33829 0.63028 0)
# Probe 592 (0.34532 0.64799 0)
# Probe 593 (0.32755 0.64283 0)
# Probe 594 (0.33287 0.65931 0)
# Probe 595 (0.31592 0.65524 0)
# Probe 596 (0.3217 0.67128 0)
# Probe 597 (0.36446 0.57739 0)
# Probe 598 (0.33454 0.61455 0)
# Probe 599 (0.33774 0.67489 0)
# Probe 600 (0.32739 0.68676 0)
# Probe 601 (0.48486 0.57827 0)
# Probe 602 (0.52121 0.58854 0)
# Probe 603 (0.31075 0.63928 0)
# Probe 604 (0.41496 0.54254 0)
# Probe 605 (0.42825 0.52902 0)
# Probe 606 (0.62964 0.66856 0)
# Probe 607 (0.62157 0.62103 0)
# Probe 608 (0.3059 0.6681 0)
# Probe 609 (0.39066 0.61201 0)
# Probe 610 (0.42895 0.5915 0)
# Probe 611 (0.59847 0.73152 0)
# Probe 612 (0.58417 0.65429 0)
# Probe 613 (0.64042 0.71523 0)
# Probe 614 (0.61334 0.56758 0)
# Probe 615 (0.60975 0.54722 0)
# Probe 616 (0.58887 0.53997 0)
# Probe 617 (0.35949 0.64614 0)
# Probe 618 (0.58714 0.79777 0)
# Probe 619 (0.40996 0.5251 0)
# Probe 620 (0.34448 0.69123 0)
# Probe 621 (0.33331 0.7023 0)
# Probe 622 (0.31684 0.69907 0)
# Probe 623 (0.32312 0.71427 0)
# Probe 624 (0.33881 0.71695 0)
# Probe 625 (0.32934 0.72888 0)
# Probe 626 (0.30637 0.71275 0)
# Probe 627 (0.41832 0.60239 0)
# Probe 628 (0.29646 0.69485 0)
# Probe 629 (0.5956 0.70069 0)
# Probe 630 (0.35288 0.67983 0)
# Probe 631 (0.42364 0.50963 0)
# Probe 632 (0.44338 0.51579 0)
# Probe 633 (0.63106 0.55427 0)
# Probe 634 (0.62855 0.53254 0)
# Probe 635 (0.39626 0.53985 0)
# Probe 636 (0.34397 0.7309 0)
# Probe 637 (0.33586 0.74363 0)
# Probe 638 (0.31986 0.74148 0)
# Probe 639 (0.32653 0.75661 0)
# Probe 640 (0.34322 0.75762 0)
# Probe 641 (0.33462 0.77229 0)
# Probe 642 (0.31659 0.77091 0)
# Probe 643 (0.32509 0.78739 0)
# Probe 644 (0.34356 0.78818 0)
# Probe 645 (0.35159 0.72091 0)
# Probe 646 (0.41818 0.19038 0)
# Probe 647 (0.41616 0.15039 0)
# Probe 648 (0.37637 0.13016 0)
# Probe 649 (0.41224 0.10524 0)
# Probe 650 (0.08562 0.80621 0)
# Probe 651 (0.10906 0.8374 0)
# Probe 652 (0.49511 0.83998 0)
# Probe 653 (0.10719 0.67973 0)
# Probe 654 (0.16174 0.56998 0)
# Probe 655 (0.12931 0.56048 0)
# Probe 656 (0.12058 0.52387 0)
# Probe 657 (0.06504 0.44747 0)
# Probe 658 (0.37329 0.08775 0)
# Probe 659 (0.33823 0.11228 0)
# Probe 660 (0.58653 0.77801 0)
# Probe 661 (0.59022 0.76314 0)
# Probe 662 (0.60082 0.75391 0)
# Probe 663 (0.34801 0.66584 0)
# Probe 664 (0.45961 0.83869 0)
# Probe 665 (0.77397 0.62555 0)
# Probe 666 (0.77761 0.66002 0)
# Probe 667 (0.77474 0.59604 0)
# Probe 668 (0.65407 0.75068 0)
# Probe 669 (0.89228 0.86229 0)
# Probe 670 (0.29083 0.77504 0)
# Probe 671 (0.33434 0.80337 0)
# Probe 672 (0.35272 0.80338 0)
# Probe 673 (0.3594 0.78819 0)
# Probe 674 (0.36984 0.80169 0)
# Probe 675 (0.3624 0.81795 0)
# Probe 676 (0.37932 0.81609 0)
# Probe 677 (0.57444 0.78931 0)
# Probe 678 (0.57018 0.80277 0)
# Probe 679 (0.59632 0.71741 0)
# Probe 680 (0.54338 0.91459 0)
# Probe 681 (0.56685 0.92546 0)
# Probe 682 (0.43383 0.60567 0)
# Probe 683 (0.44118 0.59556 0)
# Probe 684 (0.40678 0.05857 0)
# Probe 685 (0.90689 0.65535 0)
# Probe 686 (0.27456 0.72494 0)
# Probe 687 (0.56839 0.60531 0)
# Probe 688 (0.55995 0.62011 0)
# Probe 689 (0.54265 0.61251 0)
# Probe 690 (0.56445 0.63315 0)
# Probe 691 (0.08927 0.5455 0)
# Probe 692 (0.53742 0.59408 0)
# Probe 693 (0.52403 0.60299 0)
# Probe 694 (0.51134 0.5987 0)
# Probe 695 (0.50681 0.58508 0)
# Probe 696 (0.49971 0.5953 0)
# Probe 697 (0.92555 0.47783 0)
# Probe 698 (0.65694 0.60588 0)
# Probe 699 (0.63681 0.59279 0)
# Probe 700 (0.40315 0.60106 0)
# Probe 701 (0.40362 0.61436 0)
# Probe 702 (0.39602 0.62342 0)
# Probe 703 (0.42009 0.34019 0)
# Probe 704 (0.38766 0.3295 0)
# Probe 705 (0.39134 0.36296 0)
# Probe 706 (0.37184 0.38246 0)
# Probe 707 (0.66772 0.65562 0)
# Probe 708 (0.64646 0.6456 0)
# Probe 709 (0.27379 0.95945 0)
# Probe 710 (0.25107 0.92197 0)
# Probe 711 (0.20808 0.91843 0)
# Probe 712 (0.29197 0.92462 0)
# Probe 713 (0.27194 0.88851 0)
# Probe 714 (0.18045 0.95697 0)
# Probe 715 (0.16217 0.91736 0)
# Probe 716 (0.11981 0.91018 0)
# Probe 717 (0.08552 0.94144 0)
# Probe 718 (0.34863 0.70621 0)
# Probe 719 (0.35069 0.77345 0)
# Probe 720 (0.75381 0.91861 0)
# Probe 721 (0.71797 0.89538 0)
# Probe 722 (0.67302 0.95957 0)
# Probe 723 (0.65235 0.92477 0)
# Probe 724 (0.38999 0.5023 0)
# Probe 725 (0.2668 0.67041 0)
# Probe 726 (0.28056 0.64958 0)
# Probe 727 (0.74889 0.64097 0)
# Probe 728 (0.2696 0.41371 0)
# Probe 729 (0.27803 0.44464 0)
# Probe 730 (0.58719 0.72806 0)
# Probe 731 (0.56419 0.47839 0)
# Probe 732 (0.54228 0.49374 0)
# Probe 733 (0.51844 0.4837 0)
# Probe 734 (0.52243 0.50759 0)
# Probe 735 (0.49988 0.49922 0)
# Probe 736 (0.49593 0.476 0)
# Probe 737 (0.47796 0.49119 0)
# Probe 738 (0.47637 0.46835 0)
# Probe 739 (0.54336 0.51776 0)
# Probe 740 (0.56601 0.50424 0)
# Probe 741 (0.56612 0.53074 0)
# Probe 742 (0.58687 0.73924 0)
# Probe 743 (0.27537 0.62739 0)
# Probe 744 (0.29325 0.61417 0)
# Probe 745 (0.29541 0.58923 0)
# Probe 746 (0.31811 0.59012 0)
# Probe 747 (0.334 0.57796 0)
# Probe 748 (0.39792 0.39699 0)
# Probe 749 (0.38132 0.6249 0)
# Probe 750 (0.3705 0.6378 0)
# Probe 751 (0.38223 0.63793 0)
# Probe 752 (0.47015 0.57332 0)
# Probe 753 (0.47378 0.59002 0)
# Probe 754 (0.45959 0.58433 0)
# Probe 755 (0.46349 0.59809 0)
# Probe 756 (0.35751 0.83963 0)
# Probe 757 (0.35861 0.75955 0)
# Probe 758 (0.35179 0.74367 0)
# Probe 759 (0.54569 0.28679 0)
# Probe 760 (0.5467 0.32358 0)
# Probe 761 (0.89928 0.91216 0)
# Probe 762 (0.35706 0.69008 0)
# Probe 763 (0.59107 0.68473 0)
# Probe 764 (0.58816 0.66858 0)
# Probe 765 (0.44273 0.58227 0)
# Probe 766 (0.61806 0.50601 0)
# Probe 767 (0.64305 0.62434 0)
# Probe 768 (0.23131 0.88999 0)
# Probe 769 (0.6718 0.70799 0)
# Probe 770 (0.57937 0.6375 0)
# Probe 771 (0.57135 0.64816 0)
# Probe 772 (0.64906 0.66973 0)
# Probe 773 (0.65243 0.69172 0)
# Probe 774 (0.15376 0.09413 0)
# Probe 775 (0.5272 0.53014 0)
# Probe 776 (0.67541 0.7581 0)
# Probe 777 (0.33494 0.55443 0)
# Probe 778 (0.35219 0.53585 0)
# Probe 779 (0.3081 0.45835 0)
# Probe 780 (0.86899 0.67524 0)
# Probe 781 (0.90723 0.69462 0)
# Probe 782 (0.94704 0.7267 0)
# Probe 783 (0.91036 0.19961 0)
# Probe 784 (0.91082 0.14855 0)
# Probe 785 (0.03924 0.7203 0)
# Probe 786 (0.55312 0.62901 0)
# Probe 787 (0.53692 0.62622 0)
# Probe 788 (0.45156 0.1243 0)
# Probe 789 (0.77295 0.09773 0)
# Probe 790 (0.7361 0.12738 0)
# Probe 791 (0.73078 0.08039 0)
# Probe 792 (0.6923 0.11024 0)
# Probe 793 (0.69161 0.07117 0)
# Probe 794 (0.65077 0.08844 0)
# Probe 795 (0.60103 0.08395 0)
# Probe 796 (0.62017 0.1284 0)
# Probe 797 (0.46449 0.60997 0)
# Probe 798 (0.5503 0.64722 0)
# Probe 799 (0.4541 0.61279 0)
# Probe 800 (0.52706 0.62639 0)
# Probe 801 (0.4037 0.63244 0)
# Probe 802 (0.57716 0.7042 0)
# Probe 803 (0.36592 0.68346 0)
# Probe 804 (0.50668 0.61786 0)
# Probe 805 (0.48604 0.61285 0)
# Probe 806 (0.48126 0.60222 0)
# Probe 807 (0.56258 0.66449 0)
# Probe 808 (0.57408 0.66284 0)
# Probe 809 (0.93931 0.63139 0)
# Probe 810 (0.93521 0.58818 0)
# Probe 811 (0.48227 0.33479 0)
# Probe 812 (0.35339 0.31566 0)
# Probe 813 (0.29837 0.73329 0)
# Probe 814 (0.57197 0.68358 0)
# Probe 815 (0.43296 0.61772 0)
# Probe 816 (0.41427 0.62719 0)
# Probe 817 (0.79081 0.56864 0)
# Probe 818 (0.79106 0.52948 0)
# Probe 819 (0.37688 0.66405 0)
# Probe 820 (0.36804 0.66478 0)
# Probe 821 (0.6177 0.2784 0)
# Probe 822 (0.62439 0.31704 0)
# Probe 823 (0.66074 0.33191 0)
# Probe 824 (0.63099 0.35423 0)
# Probe 825 (0.59783 0.34241 0)
# Probe 826 (0.66426 0.36832 0)
# Probe 827 (0.63534 0.39062 0)
# Probe 828 (0.70062 0.38933 0)
# Probe 829 (0.715 0.42649 0)
# Probe 830 (0.58291 0.30716 0)
# Probe 831 (0.69298 0.30843 0)
# Probe 832 (0.77492 0.95967 0)
# Probe 833 (0.57236 0.7559 0)
# Probe 834 (0.36451 0.74745 0)
# Probe 835 (0.75808 0.51013 0)
# Probe 836 (0.4579 0.89383 0)
# Probe 837 (0.91288 0.76165 0)
# Probe 838 (0.92214 0.80457 0)
# Probe 839 (0.10129 0.58611 0)
# Probe 840 (0.06195 0.57112 0)
# Probe 841 (0.07374 0.61041 0)
# Probe 842 (0.56797 0.76634 0)
# Probe 843 (0.0908 0.38051 0)
# Probe 844 (0.37509 0.54209 0)
# Probe 845 (0.83599 0.65518 0)
# Probe 846 (0.3574 0.55728 0)
# Probe 847 (0.52542 0.61632 0)
# Probe 848 (0.51496 0.61089 0)
# Probe 849 (0.31907 0.29866 0)
# Probe 850 (0.37652 0.77569 0)
# Probe 851 (0.04056 0.82553 0)
# Probe 852 (0.57513 0.04226 0)
# Probe 853 (0.55324 0.09167 0)
# Probe 854 (0.52498 0.04307 0)
# Probe 855 (0.50223 0.08377 0)
# Probe 856 (0.52599 0.8133 0)
# Probe 857 (0.40526 0.8073 0)
# Probe 858 (0.42286 0.81927 0)
# Probe 859 (0.08295 0.4992 0)
# Probe 860 (0.38273 0.78474 0)
# Probe 861 (0.51646 0.81835 0)
# Probe 862 (0.51663 0.82967 0)
# Probe 863 (0.49667 0.82585 0)
# Probe 864 (0.43296 0.82295 0)
# Probe 865 (0.43564 0.83327 0)
# Probe 866 (0.39648 0.80073 0)
# Probe 867 (0.39455 0.81161 0)
# Probe 868 (0.77639 0.74273 0)
# Probe 869 (0.76729 0.70916 0)
# Probe 870 (0.37057 0.65338 0)
# Probe 871 (0.42093 0.23148 0)
# Probe 872 (0.54306 0.80065 0)
# Probe 873 (0.55375 0.80375 0)
# Probe 874 (0.55684 0.78454 0)
# Probe 875 (0.95772 0.32559 0)
# Probe 876 (0.91635 0.34873 0)
# Probe 877 (0.91602 0.30275 0)
# Probe 878 (0.87724 0.32663 0)
# Probe 879 (0.87582 0.27924 0)
# Probe 880 (0.91468 0.25211 0)
# Probe 881 (0.8349 0.25542 0)
# Probe 882 (0.48636 0.8283 0)
# Probe 883 (0.4805 0.83955 0)
# Probe 884 (0.18394 0.76807 0)
# Probe 885 (0.79344 0.68906 0)
# Probe 886 (0.27465 0.04295 0)
# Probe 887 (0.87674 0.9578 0)
# Probe 888 (0.58951 0.51636 0)
# Probe 889 (0.22993 0.4439 0)
# Probe 890 (0.95535 0.17469 0)
# Probe 891 (0.91504 0.09787 0)
# Probe 892 (0.86595 0.11862 0)
# Probe 893 (0.5406 0.24846 0)
# Probe 894 (0.22547 0.04292 0)
# Probe 895 (0.25001 0.08515 0)
# Probe 896 (0.23699 0.50644 0)
# Probe 897 (0.26016 0.4905 0)
# Probe 898 (0.57264 0.77628 0)
# Probe 899 (0.53565 0.81935 0)
# Probe 900 (0.75788 0.54405 0)
# Probe 901 (0.95737 0.07491 0)
# Probe 902 (0.68969 0.92293 0)
# Probe 903 (0.30068 0.08793 0)
# Probe 904 (0.60427 0.37832 0)
# Probe 905 (0.57422 0.36778 0)
# Probe 906 (0.48207 0.51297 0)
# Probe 907 (0.57388 0.55472 0)
# Probe 908 (0.26163 0.37961 0)
# Probe 909 (0.04149 0.17565 0)
# Probe 910 (0.82352 0.04093 0)
# Probe 911 (0.12587 0.04386 0)
# Probe 912 (0.74595 0.17344 0)
# Probe 913 (0.4554 0.17213 0)
# Probe 914 (0.87911 0.37293 0)
# Probe 915 (0.8376 0.35123 0)
# Probe 916 (0.20317 0.08556 0)
# Probe 917 (0.28441 0.68193 0)
# Probe 918 (0.51344 0.45656 0)
# Probe 919 (0.75561 0.83475 0)
# Probe 920 (0.95767 0.27653 0)
# Probe 921 (0.30492 0.75405 0)
# Probe 922 (0.08261 0.19689 0)
# Probe 923 (0.65509 0.7721 0)
# Probe 924 (0.26075 0.52201 0)
# Probe 925 (0.17049 0.2321 0)
# Probe 926 (0.52532 0.37825 0)
# Probe 927 (0.38931 0.64571 0)
# Probe 928 (0.41329 0.49042 0)
# Probe 929 (0.5773 0.73501 0)
# Probe 930 (0.4535 0.08101 0)
# Probe 931 (0.47642 0.44367 0)
# Probe 932 (0.63494 0.17246 0)
# Probe 933 (0.7135 0.20177 0)
# Probe 934 (0.22171 0.58524 0)
# Probe 935 (0.27693 0.20228 0)
# Probe 936 (0.38372 0.29321 0)
# Probe 937 (0.14469 0.60029 0)
# Probe 938 (0.19275 0.58104 0)
# Probe 939 (0.21568 0.28848 0)
# Probe 940 (0.08834 0.76499 0)
# Probe 941 (0.34336 0.15492 0)
# Probe 942 (0.58457 0.96222 0)
# Probe 943 (0.74542 0.73469 0)
# Probe 944 (0.16884 0.69778 0)
# Probe 945 (0.21657 0.78043 0)
# Probe 946 (0.52151 0.1271 0)
# Probe 947 (0.5199 0.34557 0)
# Probe 948 (0.25948 0.83965 0)
# Probe 949 (0.66315 0.14133 0)
# Probe 950 (0.79789 0.27728 0)
# Probe 951 (0.81361 0.42776 0)
# Probe 952 (0.14052 0.47142 0)
# Probe 953 (0.37583 0.56465 0)
# Probe 954 (0.64998 0.5165 0)
# Probe 955 (0.95454 0.91996 0)
# Probe 956 (0.72876 0.52658 0)
# Probe 957 (0.60906 0.41261 0)
# Probe 958 (0.20666 0.62747 0)
# Probe 959 (0.67099 0.89364 0)
# Probe 960 (0.69508 0.8677 0)
# Probe 961 (0.63804 0.42402 0)
# Probe 962 (0.15845 0.37331 0)
# Probe 963 (0.55234 0.38974 0)
# Probe 964 (0.66742 0.40195 0)
# Probe 965 (0.33645 0.59568 0)
# Probe 966 (0.04753 0.07908 0)
# Probe 967 (0.45946 0.50393 0)
# Probe 968 (0.45621 0.48276 0)
# Probe 969 (0.28273 0.50662 0)
# Probe 970 (0.4475 0.83693 0)