# Probe 0 (0 0 0)
# Probe 1 (1 0 0)
# Probe 2 (1 1 0)
# Probe 3 (0 1 0)
# Probe 4 (0.39 0.32 0)
# Probe 5 (0.29 0.22 0)
# Probe 6 (0.19 0.32 0)
# Probe 7 (0.29 0.42 0)
# Probe 8 (0.05 0 0)
# Probe 9 (0.1 0 0)
# Probe 10 (0.15 0 0)
# Probe 11 (0.2 0 0)
# Probe 12 (0.25 0 0)
# Probe 13 (0.3 0 0)
# Probe 14 (0.35 0 0)
# Probe 15 (0.4 0 0)
# Probe 16 (0.45 0 0)
# Probe 17 (0.5 0 0)
# Probe 18 (0.55 0 0)
# Probe 19 (0.6 0 0)
# Probe 20 (0.65 0 0)
# Probe 21 (0.7 0 0)
# Probe 22 (0.75 0 0)
# Probe 23 (0.8 0 0)
# Probe 24 (0.85 0 0)
# Probe 25 (0.9 0 0)
# Probe 26 (0.95 0 0)
# Probe 27 (1 0.05 0)
# Probe 28 (1 0.1 0)
# Probe 29 (1 0.15 0)
# Probe 30 (1 0.2 0)
# Probe 31 (1 0.25 0)
# Probe 32 (1 0.3 0)
# Probe 33 (1 0.35 0)
# Probe 34 (1 0.4 0)
# Probe 35 (1 0.45 0)
# Probe 36 (1 0.5 0)
# Probe 37 (1 0.55 0)
# Probe 38 (1 0.6 0)
# Probe 39 (1 0.65 0)
# Probe 40 (1 0.7 0)
# Probe 41 (1 0.75 0)
# Probe 42 (1 0.8 0)
# Probe 43 (1 0.85 0)
# Probe 44 (1 0.9 0)
# Probe 45 (1 0.95 0)
# Probe 46 (0.95 1 0)
# Probe 47 (0.9 1 0)
# Probe 48 (0.85 1 0)
# Probe 49 (0.8 1 0)
# Probe 50 (0.75 1 0)
# Probe 51 (0.7 1 0)
# Probe 52 (0.65 1 0)
# Probe 53 (0.6 1 0)
# Probe 54 (0.55 1 0)
# Probe 55 (0.5 1 0)
# Probe 56 (0.45 1 0)
# Probe 57 (0.4 1 0)
# Probe 58 (0.35 1 0)
# Probe 59 (0.3 1 0)
# Probe 60 (0.25 1 0)
# Probe 61 (0.2 1 0)
# Probe 62 (0.15 1 0)
# Probe 63 (0.1 1 0)
# Probe 64 (0.05 1 0)
# Probe 65 (0 0.95 0)
# Probe 66 (0 0.9 0)
# Probe 67 (0 0.85 0)
# Probe 68 (0 0.8 0)
# Probe 69 (0 0.75 0)
# Probe 70 (0 0.7 0)
# Probe 71 (0 0.65 0)
# Probe 72 (0 0.6 0)
# Probe 73 (0 0.55 0)
# Probe 74 (0 0.5 0)
# Probe 75 (0 0.45 0)
# Probe 76 (0 0.4 0)
# Probe 77 (0 0.35 0)
# Probe 78 (0 0.3 0)
# Probe 79 (0 0.25 0)
# Probe 80 (0 0.2 0)
# Probe 81 (0 0.15 0)
# Probe 82 (0 0.1 0)
# Probe 83 (0 0.05 0)
# Probe 84 (0.38952 0.3102 0)
# Probe 85 (0.38808 0.30049 0)
# Probe 86 (0.38569 0.29097 0)
# Probe 87 (0.38239 0.28173 0)
# Probe 88 (0.37819 0.27286 0)
# Probe 89 (0.37315 0.26444 0)
# Probe 90 (0.3673 0.25656 0)
# Probe 91 (0.36071 0.24929 0)
# Probe 92 (0.35344 0.2427 0)
# Probe 93 (0.34556 0.23685 0)
# Probe 94 (0.33714 0.23181 0)
# Probe 95 (0.32827 0.22761 0)
# Probe 96 (0.31903 0.22431 0)
# Probe 97 (0.30951 0.22192 0)
# Probe 98 (0.2998 0.22048 0)
# Probe 99 (0.2802 0.22048 0)
# Probe 100 (0.27049 0.22192 0)
# Probe 101 (0.26097 0.22431 0)
# Probe 102 (0.25173 0.22761 0)
# Probe 103 (0.24286 0.23181 0)
# Probe 104 (0.23444 0.23685 0)
# Probe 105 (0.22656 0.2427 0)
# Probe 106 (0.21929 0.24929 0)
# Probe 107 (0.2127 0.25656 0)
# Probe 108 (0.20685 0.26444 0)
# Probe 109 (0.20181 0.27286 0)
# Probe 110 (0.19761 0.28173 0)
# Probe 111 (0.19431 0.29097 0)
# Probe 112 (0.19192 0.30049 0)
# Probe 113 (0.19048 0.3102 0)
# Probe 114 (0.19048 0.3298 0)
# Probe 115 (0.19192 0.33951 0)
# Probe 116 (0.19431 0.34903 0)
# Probe 117 (0.19761 0.35827 0)
# Probe 118 (0.20181 0.36714 0)
# Probe 119 (0.20685 0.37556 0)
# Probe 120 (0.2127 0.38344 0)
# Probe 121 (0.21929 0.39071 0)
# Probe 122 (0.22656 0.3973 0)
# Probe 123 (0.23444 0.40315 0)
# Probe 124 (0.24286 0.40819 0)
# Probe 125 (0.25173 0.41239 0)
# Probe 126 (0.26097 0.41569 0)
# Probe 127 (0.27049 0.41808 0)
# Probe 128 (0.2802 0.41952 0)
# Probe 129 (0.2998 0.41952 0)
# Probe 130 (0.30951 0.41808 0)
# Probe 131 (0.31903 0.41569 0)
# Probe 132 (0.32827 0.41239 0)
# Probe 133 (0.33714 0.40819 0)
# Probe 134 (0.34556 0.40315 0)
# Probe 135 (0.35344 0.3973 0)
# Probe 136 (0.36071 0.39071 0)
# Probe 137 (0.3673 0.38344 0)
# Probe 138 (0.37315 0.37556 0)
# Probe 139 (0.37819 0.36714 0)
# Probe 140 (0.38239 0.35827 0)
# Probe 141 (0.38569 0.34903 0)
# Probe 142 (0.38808 0.33951 0)
# Probe 143 (0.38952 0.3298 0)
# Probe 144 (0.95454 0.6275 0)
# Probe 145 (0.57289 0.95804 0)
# Probe 146 (0.96005 0.42612 0)
# Probe 147 (0.375 0.9567 0)
# Probe 148 (0.67331 0.04222 0)
# Probe 149 (0.04136 0.67974 0)
# Probe 150 (0.21722 0.2397 0)
# Probe 151 (0.725 0.9567 0)
# Probe 152 (0.24272 0.22231 0)
# Probe 153 (0.9567 0.275 0)
# Probe 154 (0.3166 0.21459 0)
# Probe 155 (0.525 0.0433 0)
# Probe 156 (0.27424 0.21244 0)
# Probe 157 (0.19834 0.26525 0)
# Probe 158 (0.1916 0.36634 0)
# Probe 159 (0.225 0.9567 0)
# Probe 160 (0.18456 0.2934 0)
# Probe 161 (0.18142 0.32535 0)
# Probe 162 (0.03716 0.52103 0)
# Probe 163 (0.95929 0.775 0)
# Probe 164 (0.29562 0.21154 0)
# Probe 165 (0.20295 0.38456 0)
# Probe 166 (0.18487 0.34633 0)
# Probe 167 (0.82836 0.04738 0)
# Probe 168 (0.17148 0.03905 0)
# Probe 169 (0.04232 0.17995 0)
# Probe 170 (0.38003 0.04248 0)
# Probe 171 (0.04295 0.82783 0)
# Probe 172 (0.275 0.0433 0)
# Probe 173 (0.04281 0.43065 0)
# Probe 174 (0.4752 0.96055 0)
# Probe 175 (0.95681 0.52037 0)
# Probe 176 (0.95714 0.17437 0)
# Probe 177 (0.82491 0.95677 0)
# Probe 178 (0.03704 0.27568 0)
# Probe 179 (0.12553 0.95716 0)
# Probe 180 (0.9584 0.87156 0)
# Probe 181 (0.0403 0.07358 0)
# Probe 182 (0.9206 0.04559 0)
# Probe 183 (0.04435 0.92104 0)
# Probe 184 (0.92452 0.95809 0)
# Probe 185 (0.04196 0.22839 0)
# Probe 186 (0.07802 0.20184 0)
# Probe 187 (0.08125 0.1631 0)
# Probe 188 (0.11031 0.18598 0)
# Probe 189 (0.10856 0.21797 0)
# Probe 190 (0.13691 0.20472 0)
# Probe 191 (0.13864 0.1747 0)
# Probe 192 (0.16239 0.19116 0)
# Probe 193 (0.16529 0.16515 0)
# Probe 194 (0.18587 0.18075 0)
# Probe 195 (0.18979 0.15555 0)
# Probe 196 (0.21081 0.17387 0)
# Probe 197 (0.13521 0.23268 0)
# Probe 198 (0.2134 0.14542 0)
# Probe 199 (0.23587 0.16376 0)
# Probe 200 (0.14615 0.14436 0)
# Probe 201 (0.23746 0.13518 0)
# Probe 202 (0.25818 0.15075 0)
# Probe 203 (0.18229 0.20342 0)
# Probe 204 (0.26152 0.12443 0)
# Probe 205 (0.28185 0.1409 0)
# Probe 206 (0.23902 0.10618 0)
# Probe 207 (0.27715 0.16724 0)
# Probe 208 (0.30106 0.15649 0)
# Probe 209 (0.30536 0.13193 0)
# Probe 210 (0.32494 0.14871 0)
# Probe 211 (0.33021 0.12328 0)
# Probe 212 (0.34886 0.1413 0)
# Probe 213 (0.34572 0.22704 0)
# Probe 214 (0.34148 0.16746 0)
# Probe 215 (0.366 0.1594 0)
# Probe 216 (0.37336 0.1342 0)
# Probe 217 (0.39165 0.15668 0)
# Probe 218 (0.37066 0.24714 0)
# Probe 219 (0.39974 0.12769 0)
# Probe 220 (0.41786 0.14792 0)
# Probe 221 (0.41232 0.17271 0)
# Probe 222 (0.43534 0.16685 0)
# Probe 223 (0.42839 0.19035 0)
# Probe 224 (0.45112 0.18524 0)
# Probe 225 (0.38693 0.27457 0)
# Probe 226 (0.44204 0.21027 0)
# Probe 227 (0.46626 0.20322 0)
# Probe 228 (0.45929 0.22494 0)
# Probe 229 (0.48186 0.22008 0)
# Probe 230 (0.47501 0.24193 0)
# Probe 231 (0.49723 0.23716 0)
# Probe 232 (0.49036 0.25905 0)
# Probe 233 (0.51275 0.2542 0)
# Probe 234 (0.50559 0.27628 0)
# Probe 235 (0.52831 0.27146 0)
# Probe 236 (0.52099 0.29389 0)
# Probe 237 (0.54429 0.28894 0)
# Probe 238 (0.53753 0.31125 0)
# Probe 239 (0.56102 0.30691 0)
# Probe 240 (0.55315 0.33086 0)
# Probe 241 (0.57841 0.32592 0)
# Probe 242 (0.56914 0.35191 0)
# Probe 243 (0.59667 0.34605 0)
# Probe 244 (0.58747 0.37229 0)
# Probe 245 (0.39494 0.34651 0)
# Probe 246 (0.55977 0.37762 0)
# Probe 247 (0.57829 0.39853 0)
# Probe 248 (0.55031 0.4043 0)
# Probe 249 (0.56909 0.42517 0)
# Probe 250 (0.54144 0.43072 0)
# Probe 251 (0.55975 0.45173 0)
# Probe 252 (0.53198 0.4574 0)
# Probe 253 (0.55055 0.47883 0)
# Probe 254 (0.5223 0.48383 0)
# Probe 255 (0.54094 0.50591 0)
# Probe 256 (0.51255 0.51064 0)
# Probe 257 (0.5317 0.53384 0)
# Probe 258 (0.5023 0.53909 0)
# Probe 259 (0.36321 0.40015 0)
# Probe 260 (0.56313 0.52945 0)
# Probe 261 (0.52207 0.56289 0)
# Probe 262 (0.4919 0.56731 0)
# Probe 263 (0.59851 0.41791 0)
# Probe 264 (0.38296 0.37572 0)
# Probe 265 (0.51176 0.59166 0)
# Probe 266 (0.48097 0.59669 0)
# Probe 267 (0.46065 0.57283 0)
# Probe 268 (0.45038 0.60127 0)
# Probe 269 (0.43031 0.57911 0)
# Probe 270 (0.42069 0.60616 0)
# Probe 271 (0.33634 0.41797 0)
# Probe 272 (0.4029 0.58413 0)
# Probe 273 (0.39193 0.61112 0)
# Probe 274 (0.37453 0.58817 0)
# Probe 275 (0.30536 0.4271 0)
# Probe 276 (0.36252 0.61646 0)
# Probe 277 (0.34343 0.59245 0)
# Probe 278 (0.25318 0.42237 0)
# Probe 279 (0.60531 0.31917 0)
# Probe 280 (0.6254 0.34047 0)
# Probe 281 (0.50129 0.62159 0)
# Probe 282 (0.5333 0.61587 0)
# Probe 283 (0.41175 0.63457 0)
# Probe 284 (0.63442 0.31154 0)
# Probe 285 (0.33224 0.62327 0)
# Probe 286 (0.31287 0.59892 0)
# Probe 287 (0.65581 0.33458 0)
# Probe 288 (0.52267 0.64724 0)
# Probe 289 (0.55646 0.64057 0)
# Probe 290 (0.39807 0.3147 0)
# Probe 291 (0.66602 0.30335 0)
# Probe 292 (0.536 0.24901 0)
# Probe 293 (0.29908 0.6292 0)
# Probe 294 (0.32154 0.65559 0)
# Probe 295 (0.41372 0.56384 0)
# Probe 296 (0.28718 0.66118 0)
# Probe 297 (0.68904 0.328 0)
# Probe 298 (0.69944 0.29492 0)
# Probe 299 (0.54503 0.67386 0)
# Probe 300 (0.58069 0.66684 0)
# Probe 301 (0.50507 0.46178 0)
# Probe 302 (0.51485 0.31889 0)
# Probe 303 (0.31014 0.68892 0)
# Probe 304 (0.27942 0.60378 0)
# Probe 305 (0.72367 0.32092 0)
# Probe 306 (0.71249 0.35487 0)
# Probe 307 (0.27419 0.69599 0)
# Probe 308 (0.56837 0.70158 0)
# Probe 309 (0.60484 0.69468 0)
# Probe 310 (0.61639 0.65904 0)
# Probe 311 (0.53191 0.70798 0)
# Probe 312 (0.64196 0.68736 0)
# Probe 313 (0.65396 0.65001 0)
# Probe 314 (0.68012 0.67969 0)
# Probe 315 (0.69242 0.64132 0)
# Probe 316 (0.28512 0.42875 0)
# Probe 317 (0.39493 0.2939 0)
# Probe 318 (0.23325 0.41382 0)
# Probe 319 (0.21736 0.40013 0)
# Probe 320 (0.73456 0.28616 0)
# Probe 321 (0.32454 0.5696 0)
# Probe 322 (0.62805 0.72388 0)
# Probe 323 (0.29812 0.72496 0)
# Probe 324 (0.71935 0.67209 0)
# Probe 325 (0.73178 0.63357 0)
# Probe 326 (0.4886 0.19562 0)
# Probe 327 (0.67456 0.26963 0)
# Probe 328 (0.70501 0.60274 0)
# Probe 329 (0.26006 0.73172 0)
# Probe 330 (0.74388 0.59499 0)
# Probe 331 (0.7174 0.56514 0)
# Probe 332 (0.74849 0.34791 0)
# Probe 333 (0.75567 0.55704 0)
# Probe 334 (0.48474 0.28104 0)
# Probe 335 (0.28539 0.76212 0)
# Probe 336 (0.3244 0.75464 0)
# Probe 337 (0.75919 0.66428 0)
# Probe 338 (0.74603 0.70366 0)
# Probe 339 (0.24564 0.7694 0)
# Probe 340 (0.52316 0.41077 0)
# Probe 341 (0.23632 0.70212 0)
# Probe 342 (0.73653 0.38301 0)
# Probe 343 (0.77379 0.37605 0)
# Probe 344 (0.78339 0.58663 0)
# Probe 345 (0.7955 0.54761 0)
# Probe 346 (0.78563 0.33938 0)
# Probe 347 (0.55587 0.73673 0)
# Probe 348 (0.51771 0.7436 0)
# Probe 349 (0.5437 0.7738 0)
# Probe 350 (0.50427 0.78063 0)
# Probe 351 (0.47868 0.74992 0)
# Probe 352 (0.46482 0.78734 0)
# Probe 353 (0.45245 0.24617 0)
# Probe 354 (0.78778 0.69575 0)
# Probe 355 (0.77346 0.73689 0)
# Probe 356 (0.31169 0.79315 0)
# Probe 357 (0.57926 0.47358 0)
# Probe 358 (0.56829 0.28307 0)
# Probe 359 (0.44333 0.14212 0)
# Probe 360 (0.729 0.52819 0)
# Probe 361 (0.48637 0.51501 0)
# Probe 362 (0.69145 0.5361 0)
# Probe 363 (0.81288 0.36879 0)
# Probe 364 (0.53004 0.81197 0)
# Probe 365 (0.57083 0.80451 0)
# Probe 366 (0.42278 0.2083 0)
# Probe 367 (0.79948 0.40642 0)
# Probe 368 (0.70272 0.49823 0)
# Probe 369 (0.62484 0.61629 0)
# Probe 370 (0.82498 0.32929 0)
# Probe 371 (0.70065 0.38956 0)
# Probe 372 (0.82372 0.57715 0)
# Probe 373 (0.81719 0.72815 0)
# Probe 374 (0.80303 0.77037 0)
# Probe 375 (0.75838 0.77895 0)
# Probe 376 (0.78801 0.81135 0)
# Probe 377 (0.74155 0.82235 0)
# Probe 378 (0.83612 0.53761 0)
# Probe 379 (0.83126 0.68638 0)
# Probe 380 (0.4893 0.65285 0)
# Probe 381 (0.43977 0.75619 0)
# Probe 382 (0.42557 0.79406 0)
# Probe 383 (0.45043 0.82577 0)
# Probe 384 (0.40978 0.83251 0)
# Probe 385 (0.35919 0.18133 0)
# Probe 386 (0.83583 0.80544 0)
# Probe 387 (0.34387 0.68249 0)
# Probe 388 (0.85361 0.36084 0)
# Probe 389 (0.66668 0.50787 0)
# Probe 390 (0.7396 0.48659 0)
# Probe 391 (0.55665 0.84322 0)
# Probe 392 (0.59847 0.83607 0)
# Probe 393 (0.18989 0.12973 0)
# Probe 394 (0.67759 0.47316 0)
# Probe 395 (0.71358 0.78741 0)
# Probe 396 (0.10981 0.24641 0)
# Probe 397 (0.1352 0.26244 0)
# Probe 398 (0.1113 0.27273 0)
# Probe 399 (0.13209 0.28739 0)
# Probe 400 (0.11117 0.29809 0)
# Probe 401 (0.13575 0.3104 0)
# Probe 402 (0.11186 0.32262 0)
# Probe 403 (0.13673 0.33539 0)
# Probe 404 (0.11215 0.3475 0)
# Probe 405 (0.13365 0.35986 0)
# Probe 406 (0.11191 0.3725 0)
# Probe 407 (0.13352 0.38484 0)
# Probe 408 (0.15422 0.24907 0)
# Probe 409 (0.10983 0.39946 0)
# Probe 410 (0.13796 0.41101 0)
# Probe 411 (0.11153 0.42543 0)
# Probe 412 (0.13581 0.43875 0)
# Probe 413 (0.15424 0.42744 0)
# Probe 414 (0.16274 0.44887 0)
# Probe 415 (0.13635 0.46674 0)
# Probe 416 (0.16236 0.47889 0)
# Probe 417 (0.18681 0.46402 0)
# Probe 418 (0.18748 0.49038 0)
# Probe 419 (0.16361 0.50755 0)
# Probe 420 (0.20978 0.47582 0)
# Probe 421 (0.21168 0.50134 0)
# Probe 422 (0.23544 0.48373 0)
# Probe 423 (0.23558 0.51129 0)
# Probe 424 (0.25664 0.49728 0)
# Probe 425 (0.21367 0.52861 0)
# Probe 426 (0.25829 0.52174 0)
# Probe 427 (0.2779 0.50747 0)
# Probe 428 (0.2758 0.48472 0)
# Probe 429 (0.29514 0.49396 0)
# Probe 430 (0.29239 0.47337 0)
# Probe 431 (0.31062 0.4811 0)
# Probe 432 (0.31405 0.50058 0)
# Probe 433 (0.32909 0.48807 0)
# Probe 434 (0.32463 0.46912 0)
# Probe 435 (0.34383 0.4726 0)
# Probe 436 (0.34749 0.49433 0)
# Probe 437 (0.36168 0.48108 0)
# Probe 438 (0.3594 0.46254 0)
# Probe 439 (0.37564 0.46878 0)
# Probe 440 (0.37174 0.45144 0)
# Probe 441 (0.38902 0.45671 0)
# Probe 442 (0.39325 0.47484 0)
# Probe 443 (0.40688 0.46178 0)
# Probe 444 (0.40219 0.44331 0)
# Probe 445 (0.42032 0.4486 0)
# Probe 446 (0.4161 0.43042 0)
# Probe 447 (0.43346 0.4353 0)
# Probe 448 (0.42945 0.41738 0)
# Probe 449 (0.41192 0.48082 0)
# Probe 450 (0.44798 0.42168 0)
# Probe 451 (0.44232 0.40456 0)
# Probe 452 (0.44152 0.45338 0)
# Probe 453 (0.42523 0.39981 0)
# Probe 454 (0.43753 0.38754 0)
# Probe 455 (0.45491 0.39184 0)
# Probe 456 (0.44971 0.37448 0)
# Probe 457 (0.46759 0.37848 0)
# Probe 458 (0.46215 0.36075 0)
# Probe 459 (0.44182 0.358 0)
# Probe 460 (0.45607 0.34359 0)
# Probe 461 (0.43904 0.34048 0)
# Probe 462 (0.4505 0.32771 0)
# Probe 463 (0.48008 0.36487 0)
# Probe 464 (0.36563 0.50102 0)
# Probe 465 (0.40056 0.42726 0)
# Probe 466 (0.42125 0.38379 0)
# Probe 467 (0.43461 0.32446 0)
# Probe 468 (0.44532 0.31232 0)
# Probe 469 (0.42749 0.30925 0)
# Probe 470 (0.43998 0.29737 0)
# Probe 471 (0.41012 0.39472 0)
# Probe 472 (0.27547 0.46541 0)
# Probe 473 (0.23126 0.4577 0)
# Probe 474 (0.35047 0.51491 0)
# Probe 475 (0.42636 0.35008 0)
# Probe 476 (0.47288 0.39549 0)
# Probe 477 (0.694 0.82787 0)
# Probe 478 (0.46174 0.31515 0)
# Probe 479 (0.42479 0.29376 0)
# Probe 480 (0.65539 0.54292 0)
# Probe 481 (0.35699 0.44597 0)
# Probe 482 (0.36784 0.43588 0)
# Probe 483 (0.86465 0.56579 0)
# Probe 484 (0.77657 0.86123 0)
# Probe 485 (0.08852 0.33492 0)
# Probe 486 (0.86136 0.71936 0)
# Probe 487 (0.43546 0.28254 0)
# Probe 488 (0.42039 0.27894 0)
# Probe 489 (0.37055 0.52222 0)
# Probe 490 (0.34119 0.18851 0)
# Probe 491 (0.23026 0.18487 0)
# Probe 492 (0.86643 0.32021 0)
# Probe 493 (0.837 0.28837 0)
# Probe 494 (0.43612 0.86564 0)
# Probe 495 (0.8959 0.35236 0)
# Probe 496 (0.45351 0.71975 0)
# Probe 497 (0.41731 0.72568 0)
# Probe 498 (0.15291 0.3713 0)
# Probe 499 (0.28118 0.53247 0)
# Probe 500 (0.26056 0.54815 0)
# Probe 501 (0.88667 0.39811 0)
# Probe 502 (0.66993 0.79503 0)
# Probe 503 (0.64549 0.36486 0)
# Probe 504 (0.56693 0.60794 0)
# Probe 505 (0.87595 0.67606 0)
# Probe 506 (0.39644 0.87436 0)
# Probe 507 (0.29663 0.17788 0)
# Probe 508 (0.80725 0.50722 0)
# Probe 509 (0.84834 0.49718 0)
# Probe 510 (0.63198 0.51526 0)
# Probe 511 (0.62034 0.54907 0)
# Probe 512 (0.30938 0.10193 0)
# Probe 513 (0.29142 0.45564 0)
# Probe 514 (0.35498 0.20026 0)
# Probe 515 (0.37283 0.19553 0)
# Probe 516 (0.36679 0.21296 0)
# Probe 517 (0.38387 0.2089 0)
# Probe 518 (0.72446 0.41787 0)
# Probe 519 (0.4067 0.38003 0)
# Probe 520 (0.1528 0.29777 0)
# Probe 521 (0.51542 0.84939 0)
# Probe 522 (0.08745 0.38532 0)
# Probe 523 (0.43127 0.26635 0)
# Probe 524 (0.41572 0.26409 0)
# Probe 525 (0.42562 0.25242 0)
# Probe 526 (0.41129 0.249 0)
# Probe 527 (0.37936 0.22397 0)
# Probe 528 (0.27748 0.18836 0)
# Probe 529 (0.354 0.5366 0)
# Probe 530 (0.41952 0.32263 0)
# Probe 531 (0.90611 0.7101 0)
# Probe 532 (0.3807 0.10748 0)
# Probe 533 (0.40766 0.10017 0)
# Probe 534 (0.61294 0.29 0)
# Probe 535 (0.8787 0.27824 0)
# Probe 536 (0.84935 0.24644 0)
# Probe 537 (0.80749 0.256 0)
# Probe 538 (0.81935 0.21462 0)
# Probe 539 (0.77761 0.22423 0)
# Probe 540 (0.78939 0.18314 0)
# Probe 541 (0.74601 0.19362 0)
# Probe 542 (0.7593 0.152 0)
# Probe 543 (0.71581 0.16243 0)
# Probe 544 (0.83072 0.17447 0)
# Probe 545 (0.72954 0.12058 0)
# Probe 546 (0.68729 0.13068 0)
# Probe 547 (0.67328 0.17218 0)
# Probe 548 (0.64712 0.14328 0)
# Probe 549 (0.63496 0.18081 0)
# Probe 550 (0.60893 0.15275 0)
# Probe 551 (0.59813 0.18773 0)
# Probe 552 (0.5736 0.16235 0)
# Probe 553 (0.62377 0.11542 0)
# Probe 554 (0.62121 0.21506 0)
# Probe 555 (0.56367 0.19451 0)
# Probe 556 (0.54096 0.17076 0)
# Probe 557 (0.54935 0.13789 0)
# Probe 558 (0.51353 0.15088 0)
# Probe 559 (0.89313 0.23604 0)
# Probe 560 (0.52423 0.11435 0)
# Probe 561 (0.77435 0.11078 0)
# Probe 562 (0.55817 0.10199 0)
# Probe 563 (0.58111 0.88261 0)
# Probe 564 (0.62683 0.87012 0)
# Probe 565 (0.35275 0.78375 0)
# Probe 566 (0.33948 0.82313 0)
# Probe 567 (0.29746 0.8326 0)
# Probe 568 (0.32659 0.86285 0)
# Probe 569 (0.28249 0.87327 0)
# Probe 570 (0.25372 0.83998 0)
# Probe 571 (0.31221 0.91369 0)
# Probe 572 (0.39716 0.49433 0)
# Probe 573 (0.41729 0.50085 0)
# Probe 574 (0.43138 0.48632 0)
# Probe 575 (0.43831 0.50779 0)
# Probe 576 (0.39704 0.38971 0)
# Probe 577 (0.27564 0.4469 0)
# Probe 578 (0.26196 0.45597 0)
# Probe 579 (0.33297 0.52824 0)
# Probe 580 (0.33756 0.20333 0)
# Probe 581 (0.32575 0.19596 0)
# Probe 582 (0.45131 0.28559 0)
# Probe 583 (0.23793 0.88059 0)
# Probe 584 (0.20877 0.84761 0)
# Probe 585 (0.19322 0.89077 0)
# Probe 586 (0.16365 0.85784 0)
# Probe 587 (0.17927 0.81286 0)
# Probe 588 (0.13376 0.8201 0)
# Probe 589 (0.14953 0.77661 0)
# Probe 590 (0.11761 0.86808 0)
# Probe 591 (0.10646 0.78479 0)
# Probe 592 (0.1209 0.74149 0)
# Probe 593 (0.1724 0.73259 0)
# Probe 594 (0.13838 0.69975 0)
# Probe 595 (0.45338 0.48896 0)
# Probe 596 (0.35379 0.43083 0)
# Probe 597 (0.34179 0.4401 0)
# Probe 598 (0.36457 0.42192 0)
# Probe 599 (0.49246 0.12407 0)
# Probe 600 (0.42641 0.90548 0)
# Probe 601 (0.42974 0.69137 0)
# Probe 602 (0.2624 0.09819 0)
# Probe 603 (0.33715 0.09587 0)
# Probe 604 (0.68579 0.75331 0)
# Probe 605 (0.74794 0.07927 0)
# Probe 606 (0.88993 0.7545 0)
# Probe 607 (0.81254 0.61536 0)
# Probe 608 (0.07885 0.75462 0)
# Probe 609 (0.37305 0.54231 0)
# Probe 610 (0.38966 0.53036 0)
# Probe 611 (0.53226 0.2028 0)
# Probe 612 (0.48345 0.15458 0)
# Probe 613 (0.39498 0.22119 0)
# Probe 614 (0.38905 0.23439 0)
# Probe 615 (0.26179 0.44335 0)
# Probe 616 (0.39882 0.40333 0)
# Probe 617 (0.38783 0.39754 0)
# Probe 618 (0.81702 0.46781 0)
# Probe 619 (0.85793 0.45879 0)
# Probe 620 (0.88985 0.48666 0)
# Probe 621 (0.15696 0.26984 0)
# Probe 622 (0.17296 0.25916 0)
# Probe 623 (0.17277 0.2405 0)
# Probe 624 (0.17226 0.27476 0)
# Probe 625 (0.36568 0.22804 0)
# Probe 626 (0.20282 0.19612 0)
# Probe 627 (0.2002 0.21611 0)
# Probe 628 (0.21642 0.20876 0)
# Probe 629 (0.17948 0.68875 0)
# Probe 630 (0.15237 0.66006 0)
# Probe 631 (0.19173 0.65175 0)
# Probe 632 (0.16651 0.62278 0)
# Probe 633 (0.12831 0.62899 0)
# Probe 634 (0.14205 0.59261 0)
# Probe 635 (0.10437 0.59855 0)
# Probe 636 (0.11822 0.56268 0)
# Probe 637 (0.20361 0.61591 0)
# Probe 638 (0.22803 0.64213 0)
# Probe 639 (0.15552 0.55964 0)
# Probe 640 (0.28222 0.55506 0)
# Probe 641 (0.41748 0.37027 0)
# Probe 642 (0.40253 0.36597 0)
# Probe 643 (0.40567 0.27581 0)
# Probe 644 (0.25686 0.17412 0)
# Probe 645 (0.25947 0.19257 0)
# Probe 646 (0.68822 0.42496 0)
# Probe 647 (0.3757 0.42661 0)
# Probe 648 (0.37613 0.41597 0)
# Probe 649 (0.24381 0.07288 0)
# Probe 650 (0.2144 0.08483 0)
# Probe 651 (0.50067 0.08859 0)
# Probe 652 (0.46571 0.09943 0)
# Probe 653 (0.47272 0.06266 0)
# Probe 654 (0.36485 0.746 0)
# Probe 655 (0.46516 0.89327 0)
# Probe 656 (0.61756 0.79217 0)
# Probe 657 (0.16057 0.21168 0)
# Probe 658 (0.08086 0.56879 0)
# Probe 659 (0.07009 0.60197 0)
# Probe 660 (0.0971 0.53283 0)
# Probe 661 (0.64236 0.57871 0)
# Probe 662 (0.60825 0.58296 0)
# Probe 663 (0.40802 0.19532 0)
# Probe 664 (0.03441 0.32399 0)
# Probe 665 (0.4196 0.23692 0)
# Probe 666 (0.61683 0.91523 0)
# Probe 667 (0.6574 0.90729 0)
# Probe 668 (0.73188 0.23742 0)
# Probe 669 (0.05349 0.13595 0)
# Probe 670 (0.09279 0.12327 0)
# Probe 671 (0.41175 0.28932 0)
# Probe 672 (0.41465 0.3019 0)
# Probe 673 (0.15393 0.32311 0)
# Probe 674 (0.16925 0.30847 0)
# Probe 675 (0.15335 0.35106 0)
# Probe 676 (0.16773 0.36061 0)
# Probe 677 (0.17165 0.37841 0)
# Probe 678 (0.15543 0.39215 0)
# Probe 679 (0.17545 0.39646 0)
# Probe 680 (0.39736 0.69984 0)
# Probe 681 (0.18739 0.24838 0)
# Probe 682 (0.31871 0.07152 0)
# Probe 683 (0.18714 0.23581 0)
# Probe 684 (0.2 0.24191 0)
# Probe 685 (0.30728 0.4624 0)
# Probe 686 (0.32118 0.45174 0)
# Probe 687 (0.30624 0.44536 0)
# Probe 688 (0.31832 0.43804 0)
# Probe 689 (0.35427 0.41764 0)
# Probe 690 (0.24973 0.44876 0)
# Probe 691 (0.03134 0.36369 0)
# Probe 692 (0.2095 0.45189 0)
# Probe 693 (0.18938 0.44035 0)
# Probe 694 (0.20781 0.4312 0)
# Probe 695 (0.19302 0.42092 0)
# Probe 696 (0.42364 0.33615 0)
# Probe 697 (0.40894 0.33269 0)
# Probe 698 (0.41353 0.34554 0)
# Probe 699 (0.08801 0.28566 0)
# Probe 700 (0.4247 0.52405 0)
# Probe 701 (0.44504 0.53054 0)
# Probe 702 (0.8928 0.44393 0)
# Probe 703 (0.31694 0.17052 0)
# Probe 704 (0.03906 0.47353 0)
# Probe 705 (0.08164 0.45327 0)
# Probe 706 (0.46893 0.26414 0)
# Probe 707 (0.3565 0.56335 0)
# Probe 708 (0.38796 0.41018 0)
# Probe 709 (0.33505 0.45475 0)
# Probe 710 (0.22362 0.43784 0)
# Probe 711 (0.18931 0.38684 0)
# Probe 712 (0.5862 0.22022 0)
# Probe 713 (0.60685 0.24475 0)
# Probe 714 (0.64397 0.24648 0)
# Probe 715 (0.29243 0.19399 0)
# Probe 716 (0.37913 0.17705 0)
# Probe 717 (0.7084 0.45637 0)
# Probe 718 (0.65265 0.44165 0)
# Probe 719 (0.74912 0.44775 0)
# Probe 720 (0.29052 0.43972 0)
# Probe 721 (0.0777 0.49858 0)
# Probe 722 (0.51467 0.43636 0)
# Probe 723 (0.48913 0.44166 0)
# Probe 724 (0.47997 0.46381 0)
# Probe 725 (0.49644 0.4165 0)
# Probe 726 (0.50555 0.39146 0)
# Probe 727 (0.46501 0.44837 0)
# Probe 728 (0.47056 0.42615 0)
# Probe 729 (0.53106 0.3853 0)
# Probe 730 (0.51421 0.36684 0)
# Probe 731 (0.53998 0.35533 0)
# Probe 732 (0.51913 0.34398 0)
# Probe 733 (0.13566 0.52892 0)
# Probe 734 (0.93051 0.46915 0)
# Probe 735 (0.17898 0.58761 0)
# Probe 736 (0.21111 0.58015 0)
# Probe 737 (0.92082 0.66272 0)
# Probe 738 (0.88863 0.63031 0)
# Probe 739 (0.30932 0.54359 0)
# Probe 740 (0.24072 0.60221 0)
# Probe 741 (0.58587 0.55374 0)
# Probe 742 (0.21527 0.22395 0)
# Probe 743 (0.40026 0.26084 0)
# Probe 744 (0.66114 0.39712 0)
# Probe 745 (0.63253 0.41291 0)
# Probe 746 (0.22917 0.21861 0)
# Probe 747 (0.23066 0.20218 0)
# Probe 748 (0.49416 0.48576 0)
# Probe 749 (0.32651 0.42204 0)
# Probe 750 (0.65743 0.21182 0)
# Probe 751 (0.70098 0.20225 0)
# Probe 752 (0.37055 0.39271 0)
# Probe 753 (0.43217 0.37284 0)
# Probe 754 (0.49837 0.29868 0)
# Probe 755 (0.49205 0.31736 0)
# Probe 756 (0.37672 0.38424 0)
# Probe 757 (0.38847 0.36689 0)
# Probe 758 (0.39276 0.3568 0)
# Probe 759 (0.39721 0.3362 0)
# Probe 760 (0.29532 0.42825 0)
# Probe 761 (0.31645 0.4267 0)
# Probe 762 (0.39856 0.32556 0)
# Probe 763 (0.47659 0.30271 0)
# Probe 764 (0.57598 0.25129 0)
# Probe 765 (0.42979 0.04028 0)
# Probe 766 (0.12661 0.0416 0)
# Probe 767 (0.15211 0.08084 0)
# Probe 768 (0.66645 0.61017 0)
# Probe 769 (0.46976 0.68537 0)
# Probe 770 (0.44448 0.6553 0)
# Probe 771 (0.20664 0.41483 0)
# Probe 772 (0.19335 0.40371 0)
# Probe 773 (0.22081 0.41996 0)
# Probe 774 (0.26359 0.42483 0)
# Probe 775 (0.55272 0.22691 0)
# Probe 776 (0.64253 0.48098 0)
# Probe 777 (0.61873 0.45666 0)
# Probe 778 (0.38587 0.26464 0)
# Probe 779 (0.9287 0.38561 0)
# Probe 780 (0.94194 0.34523 0)
# Probe 781 (0.3968 0.30419 0)
# Probe 782 (0.39347 0.28207 0)
# Probe 783 (0.57591 0.03951 0)
# Probe 784 (0.62297 0.04086 0)
# Probe 785 (0.1708 0.34502 0)
# Probe 786 (0.24301 0.41856 0)
# Probe 787 (0.24466 0.4277 0)
# Probe 788 (0.22544 0.40705 0)
# Probe 789 (0.64354 0.94972 0)
# Probe 790 (0.25319 0.21768 0)
# Probe 791 (0.27426 0.42698 0)
# Probe 792 (0.42348 0.95302 0)
# Probe 793 (0.19077 0.55199 0)
# Probe 794 (0.77748 0.47721 0)
# Probe 795 (0.32642 0.21823 0)
# Probe 796 (0.30642 0.21223 0)
# Probe 797 (0.52536 0.95875 0)
# Probe 798 (0.54894 0.91621 0)
# Probe 799 (0.0816 0.23498 0)
# Probe 800 (0.28468 0.21175 0)
# Probe 801 (0.26365 0.21458 0)
# Probe 802 (0.22595 0.2319 0)
# Probe 803 (0.37766 0.25534 0)
# Probe 804 (0.38859 0.25454 0)
# Probe 805 (0.36335 0.23943 0)
# Probe 806 (0.4938 0.71427 0)
# Probe 807 (0.18166 0.26875 0)
# Probe 808 (0.95729 0.57603 0)
# Probe 809 (0.91076 0.55652 0)
# Probe 810 (0.25903 0.47503 0)
# Probe 811 (0.41191 0.41234 0)
# Probe 812 (0.20116 0.25498 0)
# Probe 813 (0.33624 0.22229 0)
# Probe 814 (0.10927 0.08291 0)
# Probe 815 (0.40323 0.3533 0)
# Probe 816 (0.18784 0.28383 0)
# Probe 817 (0.18197 0.30372 0)
# Probe 818 (0.17367 0.29588 0)
# Probe 819 (0.469 0.54189 0)
# Probe 820 (0.18801 0.35647 0)
# Probe 821 (0.19616 0.37596 0)
# Probe 822 (0.19617 0.77021 0)
# Probe 823 (0.60749 0.48844 0)
# Probe 824 (0.59632 0.52273 0)
# Probe 825 (0.2098 0.39268 0)
# Probe 826 (0.73059 0.74511 0)
# Probe 827 (0.18145 0.31466 0)
# Probe 828 (0.44931 0.26612 0)
# Probe 829 (0.08714 0.704 0)
# Probe 830 (0.64474 0.07854 0)
# Probe 831 (0.69396 0.08552 0)
# Probe 832 (0.4584 0.46741 0)
# Probe 833 (0.28034 0.20241 0)
# Probe 834 (0.32677 0.95867 0)
# Probe 835 (0.28022 0.95723 0)
# Probe 836 (0.35651 0.89497 0)
# Probe 837 (0.38498 0.43774 0)
# Probe 838 (0.18175 0.33629 0)
# Probe 839 (0.31009 0.18985 0)
# Probe 840 (0.79694 0.29831 0)
# Probe 841 (0.33415 0.42913 0)
# Probe 842 (0.35422 0.40665 0)
# Probe 843 (0.39414 0.3772 0)
# Probe 844 (0.44296 0.22971 0)
# Probe 845 (0.0766 0.04675 0)
# Probe 846 (0.11261 0.66558 0)
# Probe 847 (0.34568 0.21425 0)
# Probe 848 (0.94861 0.22841 0)
# Probe 849 (0.1731 0.95884 0)
# Probe 850 (0.15087 0.91221 0)
# Probe 851 (0.09906 0.91464 0)
# Probe 852 (0.06993 0.87323 0)
# Probe 853 (0.55295 0.55832 0)
# Probe 854 (0.77484 0.95494 0)
# Probe 855 (0.79997 0.91181 0)
# Probe 856 (0.84935 0.91365 0)
# Probe 857 (0.82737 0.87352 0)
# Probe 858 (0.87495 0.87173 0)
# Probe 859 (0.74938 0.91177 0)
# Probe 860 (0.90037 0.91786 0)
# Probe 861 (0.9571 0.12542 0)
# Probe 862 (0.91516 0.14792 0)
# Probe 863 (0.91566 0.09968 0)
# Probe 864 (0.8724 0.12373 0)
# Probe 865 (0.87159 0.07655 0)
# Probe 866 (0.82813 0.1012 0)
# Probe 867 (0.47366 0.3472 0)
# Probe 868 (0.49473 0.35071 0)
# Probe 869 (0.9574 0.82431 0)
# Probe 870 (0.91408 0.7948 0)
# Probe 871 (0.95584 0.72134 0)
# Probe 872 (0.77357 0.04063 0)
# Probe 873 (0.76741 0.51731 0)
# Probe 874 (0.39865 0.76209 0)
# Probe 875 (0.51256 0.18001 0)
# Probe 876 (0.87486 0.95773 0)
# Probe 877 (0.68009 0.57194 0)
# Probe 878 (0.23318 0.42558 0)
# Probe 879 (0.46762 0.62591 0)
# Probe 880 (0.58231 0.76502 0)
# Probe 881 (0.21753 0.03899 0)
# Probe 882 (0.26694 0.57494 0)
# Probe 883 (0.24263 0.21069 0)
# Probe 884 (0.24487 0.19635 0)
# Probe 885 (0.64458 0.7624 0)
# Probe 886 (0.64371 0.82899 0)
# Probe 887 (0.31431 0.20354 0)
# Probe 888 (0.33456 0.71851 0)
# Probe 889 (0.59358 0.63164 0)
# Probe 890 (0.67744 0.3615 0)
# Probe 891 (0.29886 0.51767 0)
# Probe 892 (0.70103 0.91231 0)
# Probe 893 (0.70629 0.71044 0)
# Probe 894 (0.84311 0.64485 0)
# Probe 895 (0.9179 0.5985 0)
# Probe 896 (0.77165 0.62522 0)
# Probe 897 (0.22519 0.80749 0)
# Probe 898 (0.4076 0.32 0)
# Probe 899 (0.84665 0.76118 0)
# Probe 900 (0.13693 0.49573 0)
# Probe 901 (0.8405 0.40019 0)
# Probe 902 (0.8781 0.52611 0)
# Probe 903 (0.26317 0.63408 0)
# Probe 904 (0.50875 0.68026 0)
# Probe 905 (0.12931 0.11234 0)
# Probe 906 (0.76759 0.26568 0)
# Probe 907 (0.91673 0.84524 0)
# Probe 908 (0.3531 0.64763 0)
# Probe 909 (0.86401 0.20558 0)
# Probe 910 (0.26985 0.80079 0)
# Probe 911 (0.59603 0.08253 0)
# Probe 912 (0.6672 0.71597 0)
# Probe 913 (0.75914 0.31317 0)
# Probe 914 (0.22114 0.73836 0)
# Probe 915 (0.59219 0.72922 0)
# Probe 916 (0.33474 0.03811 0)
# Probe 917 (0.9173 0.30731 0)
# Probe 918 (0.76131 0.41176 0)
# Probe 919 (0.17101 0.33172 0)
# Probe 920 (0.37483 0.2364 0)
# Probe 921 (0.49008 0.81868 0)
# Probe 922 (0.64318 0.28141 0)
# Probe 923 (0.8017 0.14223 0)
# Probe 924 (0.71922 0.86851 0)
# Probe 925 (0.70581 0.26376 0)
# Probe 926 (0.40376 0.23451 0)
# Probe 927 (0.91228 0.19448 0)
# Probe 928 (0.95908 0.07657 0)
# Probe 929 (0.07667 0.95876 0)
# Probe 930 (0.50514 0.91773 0)
# Probe 931 (0.10973 0.48189 0)
# Probe 932 (0.57295 0.49983 0)
# Probe 933 (0.11129 0.45369 0)
# Probe 934 (0.08041 0.41657 0)
# Probe 935 (0.9541 0.92124 0)
# Probe 936 (0.03965 0.57351 0)
# Probe 937 (0.8773 0.82522 0)
# Probe 938 (0.09037 0.82836 0)
# Probe 939 (0.59059 0.44601 0)
# Probe 940 (0.67243 0.86655 0)
# Probe 941 (0.04137 0.72792 0)
# Probe 942 (0.6071 0.39252 0)
# Probe 943 (0.35456 0.23295 0)
# Probe 944 (0.52253 0.23091 0)
# Probe 945 (0.80092 0.65531 0)
# Probe 946 (0.61498 0.36647 0)
# Probe 947 (0.46132 0.40839 0)
# Probe 948 (0.46674 0.33089 0)
# Probe 949 (0.55097 0.26668 0)
# Probe 950 (0.33239 0.50755 0)
# Probe 951 (0.50584 0.2111 0)
# Probe 952 (0.03911 0.77609 0)
# Probe 953 (0.37949 0.48799 0)
# Probe 954 (0.42492 0.46661 0)
# Probe 955 (0.4593 0.16122 0)
# Probe 956 (0.5864 0.29953 0)
# Probe 957 (0.08836 0.63291 0)
# Probe 958 (0.46095 0.51387 0)
# Probe 959 (0.1124 0.15321 0)
# Probe 960 (0.16093 0.11932 0)
# Probe 961 (0.47362 0.179 0)
# Probe 962 (0.19123 0.27305 0)
# Probe 963 (0.25994 0.91652 0)
# Probe 964 (0.42598 0.1225 0)
# Probe 965 (0.72031 0.04025 0)
# Probe 966 (0.38286 0.08071 0)
# Probe 967 (0.38574 0.80296 0)
# Probe 968 (0.47612 0.85594 0)
# Probe 969 (0.40646 0.66682 0)
# Probe 970 (0.48537 0.38338 0)
# Probe 971 (0.58498 0.12549 0)