# Probe 0 (0 0 0)
# Probe 1 (1 0 0)
# Probe 2 (1 1 0)
# Probe 3 (0 1 0)
# Probe 4 (0.67 0.37 0)
# Probe 5 (0.57 0.27 0)
# Probe 6 (0.47 0.37 0)
# Probe 7 (0.57 0.47 0)
# Probe 8 (0.05 0 0)
# Probe 9 (0.1 0 0)
# Probe 10 (0.15 0 0)
# Probe 11 (0.2 0 0)
# Probe 12 (0.25 0 0)
# Probe 13 (0.3 0 0)
# Probe 14 (0.35 0 0)
# Probe 15 (0.4 0 0)
# Probe 16 (0.45 0 0)
# Probe 17 (0.5 0 0)
# Probe 18 (0.55 0 0)
# Probe 19 (0.6 0 0)
# Probe 20 (0.65 0 0)
# Probe 21 (0.7 0 0)
# Probe 22 (0.75 0 0)
# Probe 23 (0.8 0 0)
# Probe 24 (0.85 0 0)
# Probe 25 (0.9 0 0)
# Probe 26 (0.95 0 0)
# Probe 27 (1 0.05 0)
# Probe 28 (1 0.1 0)
# Probe 29 (1 0.15 0)
# Probe 30 (1 0.2 0)
# Probe 31 (1 0.25 0)
# Probe 32 (1 0.3 0)
# Probe 33 (1 0.35 0)
# Probe 34 (1 0.4 0)
# Probe 35 (1 0.45 0)
# Probe 36 (1 0.5 0)
# Probe 37 (1 0.55 0)
# Probe 38 (1 0.6 0)
# Probe 39 (1 0.65 0)
# Probe 40 (1 0.7 0)
# Probe 41 (1 0.75 0)
# Probe 42 (1 0.8 0)
# Probe 43 (1 0.85 0)
# Probe 44 (1 0.9 0)
# Probe 45 (1 0.95 0)
# Probe 46 (0.95 1 0)
# Probe 47 (0.9 1 0)
# Probe 48 (0.85 1 0)
# Probe 49 (0.8 1 0)
# Probe 50 (0.75 1 0)
# Probe 51 (0.7 1 0)
# Probe 52 (0.65 1 0)
# Probe 53 (0.6 1 0)
# Probe 54 (0.55 1 0)
# Probe 55 (0.5 1 0)
# Probe 56 (0.45 1 0)
# Probe 57 (0.4 1 0)
# Probe 58 (0.35 1 0)
# Probe 59 (0.3 1 0)
# Probe 60 (0.25 1 0)
# Probe 61 (0.2 1 0)
# Probe 62 (0.15 1 0)
# Probe 63 (0.1 1 0)
# Probe 64 (0.05 1 0)
# Probe 65 (0 0.95 0)
# Probe 66 (0 0.9 0)
# Probe 67 (0 0.85 0)
# Probe 68 (0 0.8 0)
# Probe 69 (0 0.75 0)
# Probe 70 (0 0.7 0)
# Probe 71 (0 0.65 0)
# Probe 72 (0 0.6 0)
# Probe 73 (0 0.55 0)
# Probe 74 (0 0.5 0)
# Probe 75 (0 0.45 0)
# Probe 76 (0 0.4 0)
# Probe 77 (0 0.35 0)
# Probe 78 (0 0.3 0)
# Probe 79 (0 0.25 0)
# Probe 80 (0 0.2 0)
# Probe 81 (0 0.15 0)
# Probe 82 (0 0.1 0)
# Probe 83 (0 0.05 0)
# Probe 84 (0.66952 0.3602 0)
# Probe 85 (0.66808 0.35049 0)
# Probe 86 (0.66569 0.34097 0)
# Probe 87 (0.66239 0.33173 0)
# Probe 88 (0.65819 0.32286 0)
# Probe 89 (0.65315 0.31444 0)
# Probe 90 (0.6473 0.30656 0)
# Probe 91 (0.64071 0.29929 0)
# Probe 92 (0.63344 0.2927 0)
# Probe 93 (0.62556 0.28685 0)
# Probe 94 (0.61714 0.28181 0)
# Probe 95 (0.60827 0.27761 0)
# Probe 96 (0.59903 0.27431 0)
# Probe 97 (0.58951 0.27192 0)
# Probe 98 (0.5798 0.27048 0)
# Probe 99 (0.5602 0.27048 0)
# Probe 100 (0.55049 0.27192 0)
# Probe 101 (0.54097 0.27431 0)
# Probe 102 (0.53173 0.27761 0)
# Probe 103 (0.52286 0.28181 0)
# Probe 104 (0.51444 0.28685 0)
# Probe 105 (0.50656 0.2927 0)
# Probe 106 (0.49929 0.29929 0)
# Probe 107 (0.4927 0.30656 0)
# Probe 108 (0.48685 0.31444 0)
# Probe 109 (0.48181 0.32286 0)
# Probe 110 (0.47761 0.33173 0)
# Probe 111 (0.47431 0.34097 0)
# Probe 112 (0.47192 0.35049 0)
# Probe 113 (0.47048 0.3602 0)
# Probe 114 (0.47048 0.3798 0)
# Probe 115 (0.47192 0.38951 0)
# Probe 116 (0.47431 0.39903 0)
# Probe 117 (0.47761 0.40827 0)
# Probe 118 (0.48181 0.41714 0)
# Probe 119 (0.48685 0.42556 0)
# Probe 120 (0.4927 0.43344 0)
# Probe 121 (0.49929 0.44071 0)
# Probe 122 (0.50656 0.4473 0)
# Probe 123 (0.51444 0.45315 0)
# Probe 124 (0.52286 0.45819 0)
# Probe 125 (0.53173 0.46239 0)
# Probe 126 (0.54097 0.46569 0)
# Probe 127 (0.55049 0.46808 0)
# Probe 128 (0.5602 0.46952 0)
# Probe 129 (0.5798 0.46952 0)
# Probe 130 (0.58951 0.46808 0)
# Probe 131 (0.59903 0.46569 0)
# Probe 132 (0.60827 0.46239 0)
# Probe 133 (0.61714 0.45819 0)
# Probe 134 (0.62556 0.45315 0)
# Probe 135 (0.63344 0.4473 0)
# Probe 136 (0.64071 0.44071 0)
# Probe 137 (0.6473 0.43344 0)
# Probe 138 (0.65315 0.42556 0)
# Probe 139 (0.65819 0.41714 0)
# Probe 140 (0.66239 0.40827 0)
# Probe 141 (0.66569 0.39903 0)
# Probe 142 (0.66808 0.38951 0)
# Probe 143 (0.66952 0.3798 0)
# Probe 144 (0.32575 0.96084 0)
# Probe 145 (0.0388 0.62689 0)
# Probe 146 (0.67449 0.95559 0)
# Probe 147 (0.47063 0.95842 0)
# Probe 148 (0.9526 0.67189 0)
# Probe 149 (0.04257 0.47269 0)
# Probe 150 (0.04631 0.27327 0)
# Probe 151 (0.27453 0.04111 0)
# Probe 152 (0.96503 0.51589 0)
# Probe 153 (0.96213 0.22843 0)
# Probe 154 (0.77958 0.04478 0)
# Probe 155 (0.9567 0.375 0)
# Probe 156 (0.03748 0.77424 0)
# Probe 157 (0.42777 0.04079 0)
# Probe 158 (0.62223 0.04218 0)
# Probe 159 (0.82768 0.95158 0)
# Probe 160 (0.17085 0.95716 0)
# Probe 161 (0.95647 0.82372 0)
# Probe 162 (0.52781 0.04703 0)
# Probe 163 (0.56468 0.26175 0)
# Probe 164 (0.5859 0.26279 0)
# Probe 165 (0.17215 0.04062 0)
# Probe 166 (0.03903 0.37505 0)
# Probe 167 (0.04469 0.1689 0)
# Probe 168 (0.5745 0.95215 0)
# Probe 169 (0.8769 0.0479 0)
# Probe 170 (0.04251 0.87646 0)
# Probe 171 (0.9537 0.12647 0)
# Probe 172 (0.92497 0.96258 0)
# Probe 173 (0.04477 0.07814 0)
# Probe 174 (0.07347 0.95882 0)
# Probe 175 (0.57638 0.04148 0)
# Probe 176 (0.59539 0.08336 0)
# Probe 177 (0.63937 0.0816 0)
# Probe 178 (0.6206 0.11372 0)
# Probe 179 (0.6547 0.11502 0)
# Probe 180 (0.61718 0.27173 0)
# Probe 181 (0.6375 0.14272 0)
# Probe 182 (0.66805 0.14461 0)
# Probe 183 (0.60766 0.14238 0)
# Probe 184 (0.6527 0.16919 0)
# Probe 185 (0.68167 0.17079 0)
# Probe 186 (0.64278 0.2897 0)
# Probe 187 (0.66837 0.19316 0)
# Probe 188 (0.69492 0.20104 0)
# Probe 189 (0.71056 0.17323 0)
# Probe 190 (0.72361 0.20049 0)
# Probe 191 (0.74056 0.17469 0)
# Probe 192 (0.75279 0.20218 0)
# Probe 193 (0.73613 0.22648 0)
# Probe 194 (0.66797 0.32366 0)
# Probe 195 (0.76413 0.22903 0)
# Probe 196 (0.65755 0.30528 0)
# Probe 197 (0.7474 0.25196 0)
# Probe 198 (0.77516 0.25481 0)
# Probe 199 (0.75894 0.27672 0)
# Probe 200 (0.78641 0.28002 0)
# Probe 201 (0.76634 0.30443 0)
# Probe 202 (0.67804 0.36467 0)
# Probe 203 (0.67513 0.34367 0)
# Probe 204 (0.79708 0.30574 0)
# Probe 205 (0.78099 0.32796 0)
# Probe 206 (0.78275 0.20544 0)
# Probe 207 (0.64138 0.19392 0)
# Probe 208 (0.80877 0.33104 0)
# Probe 209 (0.79193 0.35293 0)
# Probe 210 (0.76599 0.35029 0)
# Probe 211 (0.77607 0.37349 0)
# Probe 212 (0.67489 0.39629 0)
# Probe 213 (0.80213 0.37773 0)
# Probe 214 (0.78539 0.39802 0)
# Probe 215 (0.8112 0.4032 0)
# Probe 216 (0.79405 0.4236 0)
# Probe 217 (0.77002 0.41913 0)
# Probe 218 (0.7768 0.44418 0)
# Probe 219 (0.66277 0.42629 0)
# Probe 220 (0.8029 0.44903 0)
# Probe 221 (0.7844 0.46833 0)
# Probe 222 (0.75957 0.46338 0)
# Probe 223 (0.76668 0.48658 0)
# Probe 224 (0.74296 0.48103 0)
# Probe 225 (0.74903 0.50453 0)
# Probe 226 (0.64242 0.45019 0)
# Probe 227 (0.77388 0.51072 0)
# Probe 228 (0.75569 0.52876 0)
# Probe 229 (0.73101 0.52214 0)
# Probe 230 (0.73713 0.5464 0)
# Probe 231 (0.7128 0.5389 0)
# Probe 232 (0.7188 0.56383 0)
# Probe 233 (0.69455 0.55621 0)
# Probe 234 (0.70037 0.58116 0)
# Probe 235 (0.67621 0.57424 0)
# Probe 236 (0.68207 0.5986 0)
# Probe 237 (0.65776 0.59168 0)
# Probe 238 (0.66378 0.61633 0)
# Probe 239 (0.64001 0.60887 0)
# Probe 240 (0.57532 0.47825 0)
# Probe 241 (0.64512 0.63399 0)
# Probe 242 (0.61844 0.62451 0)
# Probe 243 (0.67059 0.64179 0)
# Probe 244 (0.6258 0.65228 0)
# Probe 245 (0.60029 0.64485 0)
# Probe 246 (0.72509 0.5889 0)
# Probe 247 (0.60646 0.67152 0)
# Probe 248 (0.57996 0.66346 0)
# Probe 249 (0.57448 0.63346 0)
# Probe 250 (0.55407 0.65454 0)
# Probe 251 (0.54795 0.62884 0)
# Probe 252 (0.52878 0.64678 0)
# Probe 253 (0.5434 0.47526 0)
# Probe 254 (0.52267 0.621 0)
# Probe 255 (0.50414 0.63888 0)
# Probe 256 (0.49783 0.61311 0)
# Probe 257 (0.47893 0.63133 0)
# Probe 258 (0.47286 0.60552 0)
# Probe 259 (0.45343 0.6237 0)
# Probe 260 (0.44728 0.59733 0)
# Probe 261 (0.42765 0.61567 0)
# Probe 262 (0.42174 0.58933 0)
# Probe 263 (0.39984 0.60822 0)
# Probe 264 (0.39472 0.58089 0)
# Probe 265 (0.48931 0.44319 0)
# Probe 266 (0.37294 0.59964 0)
# Probe 267 (0.3668 0.57158 0)
# Probe 268 (0.51469 0.46314 0)
# Probe 269 (0.43345 0.64536 0)
# Probe 270 (0.3452 0.59098 0)
# Probe 271 (0.33915 0.5617 0)
# Probe 272 (0.35134 0.62065 0)
# Probe 273 (0.53298 0.67297 0)
# Probe 274 (0.60599 0.47028 0)
# Probe 275 (0.36056 0.54209 0)
# Probe 276 (0.33327 0.5328 0)
# Probe 277 (0.35402 0.51336 0)
# Probe 278 (0.47195 0.41628 0)
# Probe 279 (0.32644 0.50443 0)
# Probe 280 (0.34822 0.48654 0)
# Probe 281 (0.32125 0.47729 0)
# Probe 282 (0.34231 0.46036 0)
# Probe 283 (0.46207 0.38569 0)
# Probe 284 (0.31726 0.45156 0)
# Probe 285 (0.33961 0.43172 0)
# Probe 286 (0.31267 0.42564 0)
# Probe 287 (0.33092 0.40754 0)
# Probe 288 (0.30706 0.40026 0)
# Probe 289 (0.32638 0.38297 0)
# Probe 290 (0.46263 0.35385 0)
# Probe 291 (0.30191 0.37492 0)
# Probe 292 (0.32031 0.35766 0)
# Probe 293 (0.29598 0.34882 0)
# Probe 294 (0.31393 0.33165 0)
# Probe 295 (0.29036 0.32192 0)
# Probe 296 (0.31018 0.30321 0)
# Probe 297 (0.47203 0.32366 0)
# Probe 298 (0.30353 0.52184 0)
# Probe 299 (0.28304 0.2931 0)
# Probe 300 (0.32131 0.61021 0)
# Probe 301 (0.32959 0.64446 0)
# Probe 302 (0.29314 0.44178 0)
# Probe 303 (0.30647 0.27323 0)
# Probe 304 (0.27762 0.36728 0)
# Probe 305 (0.2963 0.63135 0)
# Probe 306 (0.30533 0.66853 0)
# Probe 307 (0.54098 0.60368 0)
# Probe 308 (0.78156 0.53637 0)
# Probe 309 (0.27841 0.26185 0)
# Probe 310 (0.33527 0.28639 0)
# Probe 311 (0.33028 0.25444 0)
# Probe 312 (0.50576 0.28308 0)
# Probe 313 (0.35832 0.26368 0)
# Probe 314 (0.44142 0.56897 0)
# Probe 315 (0.63499 0.58449 0)
# Probe 316 (0.37274 0.49436 0)
# Probe 317 (0.48285 0.30536 0)
# Probe 318 (0.62496 0.46299 0)
# Probe 319 (0.52369 0.27207 0)
# Probe 320 (0.5436 0.26454 0)
# Probe 321 (0.27018 0.6563 0)
# Probe 322 (0.27854 0.69283 0)
# Probe 323 (0.31493 0.70334 0)
# Probe 324 (0.28755 0.72924 0)
# Probe 325 (0.32605 0.73988 0)
# Probe 326 (0.34573 0.36567 0)
# Probe 327 (0.36367 0.44493 0)
# Probe 328 (0.35298 0.23426 0)
# Probe 329 (0.38425 0.24669 0)
# Probe 330 (0.25285 0.28369 0)
# Probe 331 (0.24568 0.2513 0)
# Probe 332 (0.24252 0.68208 0)
# Probe 333 (0.23444 0.64434 0)
# Probe 334 (0.6678 0.54861 0)
# Probe 335 (0.3759 0.21536 0)
# Probe 336 (0.4033 0.22498 0)
# Probe 337 (0.38337 0.2761 0)
# Probe 338 (0.34674 0.204 0)
# Probe 339 (0.29691 0.76708 0)
# Probe 340 (0.33429 0.77758 0)
# Probe 341 (0.70576 0.51218 0)
# Probe 342 (0.4911 0.58796 0)
# Probe 343 (0.21965 0.27419 0)
# Probe 344 (0.21217 0.2395 0)
# Probe 345 (0.2412 0.21466 0)
# Probe 346 (0.73644 0.45962 0)
# Probe 347 (0.58607 0.69143 0)
# Probe 348 (0.61409 0.69973 0)
# Probe 349 (0.59258 0.72089 0)
# Probe 350 (0.62322 0.72968 0)
# Probe 351 (0.59959 0.75258 0)
# Probe 352 (0.63148 0.76185 0)
# Probe 353 (0.65565 0.73783 0)
# Probe 354 (0.66452 0.77127 0)
# Probe 355 (0.68973 0.74563 0)
# Probe 356 (0.70047 0.78264 0)
# Probe 357 (0.72527 0.75446 0)
# Probe 358 (0.73465 0.79089 0)
# Probe 359 (0.76136 0.76311 0)
# Probe 360 (0.39783 0.19647 0)
# Probe 361 (0.42463 0.20668 0)
# Probe 362 (0.60749 0.78611 0)
# Probe 363 (0.57383 0.77581 0)
# Probe 364 (0.20537 0.67065 0)
# Probe 365 (0.1975 0.63231 0)
# Probe 366 (0.82638 0.30783 0)
# Probe 367 (0.20429 0.20271 0)
# Probe 368 (0.75162 0.72646 0)
# Probe 369 (0.78863 0.73572 0)
# Probe 370 (0.67833 0.21889 0)
# Probe 371 (0.42989 0.23271 0)
# Probe 372 (0.44934 0.21605 0)
# Probe 373 (0.44623 0.18982 0)
# Probe 374 (0.47231 0.20324 0)
# Probe 375 (0.46798 0.17364 0)
# Probe 376 (0.49211 0.18491 0)
# Probe 377 (0.36461 0.75014 0)
# Probe 378 (0.37233 0.78753 0)
# Probe 379 (0.39991 0.7599 0)
# Probe 380 (0.40976 0.79746 0)
# Probe 381 (0.83827 0.3345 0)
# Probe 382 (0.21395 0.70945 0)
# Probe 383 (0.81133 0.47429 0)
# Probe 384 (0.7518 0.36979 0)
# Probe 385 (0.83107 0.45477 0)
# Probe 386 (0.77777 0.69874 0)
# Probe 387 (0.73217 0.27433 0)
# Probe 388 (0.67523 0.80718 0)
# Probe 389 (0.44131 0.16161 0)
# Probe 390 (0.74301 0.34929 0)
# Probe 391 (0.79552 0.77706 0)
# Probe 392 (0.72695 0.1464 0)
# Probe 393 (0.75967 0.14818 0)
# Probe 394 (0.48476 0.6577 0)
# Probe 395 (0.43646 0.77009 0)
# Probe 396 (0.44679 0.80696 0)
# Probe 397 (0.30577 0.80586 0)
# Probe 398 (0.26758 0.79563 0)
# Probe 399 (0.58197 0.81129 0)
# Probe 400 (0.41942 0.8356 0)
# Probe 401 (0.80363 0.25732 0)
# Probe 402 (0.45298 0.2406 0)
# Probe 403 (0.85825 0.30864 0)
# Probe 404 (0.84086 0.48234 0)
# Probe 405 (0.86237 0.45981 0)
# Probe 406 (0.17496 0.69757 0)
# Probe 407 (0.18427 0.73731 0)
# Probe 408 (0.81523 0.70798 0)
# Probe 409 (0.80437 0.67148 0)
# Probe 410 (0.18483 0.26382 0)
# Probe 411 (0.19391 0.2982 0)
# Probe 412 (0.49835 0.20894 0)
# Probe 413 (0.51684 0.1948 0)
# Probe 414 (0.5133 0.16945 0)
# Probe 415 (0.46421 0.14402 0)
# Probe 416 (0.23411 0.17706 0)
# Probe 417 (0.2762 0.83557 0)
# Probe 418 (0.23561 0.82462 0)
# Probe 419 (0.22685 0.60641 0)
# Probe 420 (0.19015 0.59408 0)
# Probe 421 (0.72784 0.36764 0)
# Probe 422 (0.21895 0.5689 0)
# Probe 423 (0.18262 0.5564 0)
# Probe 424 (0.21111 0.53149 0)
# Probe 425 (0.17538 0.51889 0)
# Probe 426 (0.2034 0.49446 0)
# Probe 427 (0.16806 0.48214 0)
# Probe 428 (0.1959 0.45777 0)
# Probe 429 (0.16052 0.44556 0)
# Probe 430 (0.18906 0.42149 0)
# Probe 431 (0.14795 0.54376 0)
# Probe 432 (0.72201 0.34841 0)
# Probe 433 (0.19589 0.16422 0)
# Probe 434 (0.5363 0.18089 0)
# Probe 435 (0.53551 0.15387 0)
# Probe 436 (0.53875 0.20477 0)
# Probe 437 (0.55708 0.19256 0)
# Probe 438 (0.15333 0.40885 0)
# Probe 439 (0.45826 0.84562 0)
# Probe 440 (0.43576 0.2552 0)
# Probe 441 (0.45721 0.26256 0)
# Probe 442 (0.44176 0.27588 0)
# Probe 443 (0.1664 0.19026 0)
# Probe 444 (0.15669 0.1504 0)
# Probe 445 (0.15743 0.28795 0)
# Probe 446 (0.55808 0.21449 0)
# Probe 447 (0.57573 0.20318 0)
# Probe 448 (0.35937 0.65165 0)
# Probe 449 (0.317 0.84677 0)
# Probe 450 (0.84181 0.68029 0)
# Probe 451 (0.8309 0.64376 0)
# Probe 452 (0.85124 0.7158 0)
# Probe 453 (0.16006 0.61914 0)
# Probe 454 (0.42763 0.73431 0)
# Probe 455 (0.46328 0.74385 0)
# Probe 456 (0.6831 0.08874 0)
# Probe 457 (0.76838 0.66307 0)
# Probe 458 (0.47195 0.24878 0)
# Probe 459 (0.54644 0.79973 0)
# Probe 460 (0.5555 0.83645 0)
# Probe 461 (0.59173 0.8482 0)
# Probe 462 (0.73258 0.33225 0)
# Probe 463 (0.71358 0.33167 0)
# Probe 464 (0.5753 0.22534 0)
# Probe 465 (0.24517 0.86664 0)
# Probe 466 (0.20229 0.85378 0)
# Probe 467 (0.43681 0.13136 0)
# Probe 468 (0.54171 0.2247 0)
# Probe 469 (0.2264 0.13793 0)
# Probe 470 (0.26469 0.15171 0)
# Probe 471 (0.73816 0.38582 0)
# Probe 472 (0.71862 0.38459 0)
# Probe 473 (0.72479 0.39971 0)
# Probe 474 (0.59275 0.21322 0)
# Probe 475 (0.14356 0.72552 0)
# Probe 476 (0.15326 0.7688 0)
# Probe 477 (0.42965 0.87508 0)
# Probe 478 (0.46086 0.11174 0)
# Probe 479 (0.8726 0.49095 0)
# Probe 480 (0.84799 0.51667 0)
# Probe 481 (0.89689 0.46532 0)
# Probe 482 (0.8842 0.43482 0)
# Probe 483 (0.59346 0.23343 0)
# Probe 484 (0.87272 0.34066 0)
# Probe 485 (0.89546 0.31483 0)
# Probe 486 (0.87852 0.27926 0)
# Probe 487 (0.72143 0.47498 0)
# Probe 488 (0.7157 0.4561 0)
# Probe 489 (0.70274 0.46947 0)
# Probe 490 (0.6949 0.45087 0)
# Probe 491 (0.68458 0.46513 0)
# Probe 492 (0.70876 0.4389 0)
# Probe 493 (0.53885 0.75886 0)
# Probe 494 (0.70771 0.39701 0)
# Probe 495 (0.86844 0.65249 0)
# Probe 496 (0.85846 0.61611 0)
# Probe 497 (0.81885 0.60613 0)
# Probe 498 (0.89457 0.62489 0)
# Probe 499 (0.88584 0.58786 0)
# Probe 500 (0.67798 0.71311 0)
# Probe 501 (0.18197 0.38459 0)
# Probe 502 (0.14558 0.37173 0)
# Probe 503 (0.60935 0.22185 0)
# Probe 504 (0.61044 0.23937 0)
# Probe 505 (0.62434 0.23043 0)
# Probe 506 (0.47579 0.26725 0)
# Probe 507 (0.48916 0.25618 0)
# Probe 508 (0.69234 0.43447 0)
# Probe 509 (0.25439 0.58098 0)
# Probe 510 (0.22371 0.43491 0)
# Probe 511 (0.68992 0.48177 0)
# Probe 512 (0.67329 0.47762 0)
# Probe 513 (0.67788 0.49391 0)
# Probe 514 (0.66136 0.48972 0)
# Probe 515 (0.66575 0.50581 0)
# Probe 516 (0.64954 0.5011 0)
# Probe 517 (0.66827 0.46256 0)
# Probe 518 (0.646 0.4855 0)
# Probe 519 (0.63448 0.49635 0)
# Probe 520 (0.63753 0.51195 0)
# Probe 521 (0.6223 0.50723 0)
# Probe 522 (0.62567 0.52299 0)
# Probe 523 (0.61001 0.51808 0)
# Probe 524 (0.61353 0.53431 0)
# Probe 525 (0.59696 0.52904 0)
# Probe 526 (0.60093 0.5458 0)
# Probe 527 (0.58353 0.54047 0)
# Probe 528 (0.58761 0.55833 0)
# Probe 529 (0.57017 0.55261 0)
# Probe 530 (0.5663 0.53477 0)
# Probe 531 (0.55305 0.54637 0)
# Probe 532 (0.54994 0.52928 0)
# Probe 533 (0.53647 0.54053 0)
# Probe 534 (0.53441 0.52099 0)
# Probe 535 (0.52027 0.53435 0)
# Probe 536 (0.51701 0.51743 0)
# Probe 537 (0.50383 0.52897 0)
# Probe 538 (0.50071 0.51225 0)
# Probe 539 (0.48743 0.52345 0)
# Probe 540 (0.48406 0.50644 0)
# Probe 541 (0.47079 0.51767 0)
# Probe 542 (0.46712 0.50025 0)
# Probe 543 (0.45357 0.51211 0)
# Probe 544 (0.45059 0.49422 0)
# Probe 545 (0.46379 0.48287 0)
# Probe 546 (0.44795 0.47699 0)
# Probe 547 (0.43585 0.50608 0)
# Probe 548 (0.56297 0.51817 0)
# Probe 549 (0.51398 0.50206 0)
# Probe 550 (0.46142 0.46379 0)
# Probe 551 (0.4453 0.45962 0)
# Probe 552 (0.4321 0.47064 0)
# Probe 553 (0.42982 0.4539 0)
# Probe 554 (0.44269 0.44356 0)
# Probe 555 (0.42803 0.4376 0)
# Probe 556 (0.47545 0.47158 0)
# Probe 557 (0.44059 0.42821 0)
# Probe 558 (0.42631 0.42201 0)
# Probe 559 (0.43909 0.41349 0)
# Probe 560 (0.42492 0.40669 0)
# Probe 561 (0.41148 0.41497 0)
# Probe 562 (0.40998 0.39926 0)
# Probe 563 (0.4234 0.39026 0)
# Probe 564 (0.40849 0.3833 0)
# Probe 565 (0.42443 0.37421 0)
# Probe 566 (0.40714 0.36703 0)
# Probe 567 (0.42052 0.35846 0)
# Probe 568 (0.40479 0.35056 0)
# Probe 569 (0.42142 0.34194 0)
# Probe 570 (0.40354 0.33263 0)
# Probe 571 (0.39452 0.39359 0)
# Probe 572 (0.41869 0.32277 0)
# Probe 573 (0.41472 0.44728 0)
# Probe 574 (0.43447 0.32992 0)
# Probe 575 (0.59556 0.51289 0)
# Probe 576 (0.49167 0.54048 0)
# Probe 577 (0.3875 0.34343 0)
# Probe 578 (0.38577 0.32343 0)
# Probe 579 (0.5195 0.5539 0)
# Probe 580 (0.63048 0.54 0)
# Probe 581 (0.57369 0.5716 0)
# Probe 582 (0.43396 0.36468 0)
# Probe 583 (0.43301 0.31322 0)
# Probe 584 (0.41818 0.30335 0)
# Probe 585 (0.12328 0.43182 0)
# Probe 586 (0.62467 0.24905 0)
# Probe 587 (0.63903 0.23866 0)
# Probe 588 (0.6402 0.25468 0)
# Probe 589 (0.65425 0.24558 0)
# Probe 590 (0.65494 0.262 0)
# Probe 591 (0.66926 0.25325 0)
# Probe 592 (0.67007 0.27012 0)
# Probe 593 (0.68463 0.26095 0)
# Probe 594 (0.68478 0.27862 0)
# Probe 595 (0.23797 0.50657 0)
# Probe 596 (0.70195 0.38356 0)
# Probe 597 (0.70471 0.34641 0)
# Probe 598 (0.59203 0.19176 0)
# Probe 599 (0.59264 0.5764 0)
# Probe 600 (0.43934 0.52513 0)
# Probe 601 (0.42008 0.51906 0)
# Probe 602 (0.74456 0.11764 0)
# Probe 603 (0.78037 0.1196 0)
# Probe 604 (0.7255 0.31225 0)
# Probe 605 (0.70582 0.31567 0)
# Probe 606 (0.4546 0.43399 0)
# Probe 607 (0.57784 0.59157 0)
# Probe 608 (0.56436 0.71157 0)
# Probe 609 (0.4161 0.49756 0)
# Probe 610 (0.55944 0.87902 0)
# Probe 611 (0.59986 0.88569 0)
# Probe 612 (0.13467 0.68327 0)
# Probe 613 (0.10182 0.71207 0)
# Probe 614 (0.36897 0.33532 0)
# Probe 615 (0.45241 0.70992 0)
# Probe 616 (0.48672 0.71769 0)
# Probe 617 (0.41967 0.70027 0)
# Probe 618 (0.92125 0.43725 0)
# Probe 619 (0.79602 0.15227 0)
# Probe 620 (0.81774 0.12238 0)
# Probe 621 (0.83475 0.1579 0)
# Probe 622 (0.85776 0.12551 0)
# Probe 623 (0.87467 0.16288 0)
# Probe 624 (0.85089 0.19184 0)
# Probe 625 (0.61845 0.4904 0)
# Probe 626 (0.88648 0.5283 0)
# Probe 627 (0.14847 0.25191 0)
# Probe 628 (0.44778 0.3204 0)
# Probe 629 (0.44661 0.3048 0)
# Probe 630 (0.47584 0.45715 0)
# Probe 631 (0.48682 0.46264 0)
# Probe 632 (0.48903 0.47523 0)
# Probe 633 (0.4484 0.33619 0)
# Probe 634 (0.39052 0.86457 0)
# Probe 635 (0.39612 0.91336 0)
# Probe 636 (0.82973 0.38217 0)
# Probe 637 (0.12406 0.17563 0)
# Probe 638 (0.11526 0.13467 0)
# Probe 639 (0.92266 0.28361 0)
# Probe 640 (0.89601 0.24228 0)
# Probe 641 (0.11929 0.27847 0)
# Probe 642 (0.5112 0.78813 0)
# Probe 643 (0.62925 0.85915 0)
# Probe 644 (0.47034 0.8846 0)
# Probe 645 (0.5799 0.24087 0)
# Probe 646 (0.92276 0.6004 0)
# Probe 647 (0.36676 0.31367 0)
# Probe 648 (0.42483 0.53717 0)
# Probe 649 (0.42231 0.26871 0)
# Probe 650 (0.36295 0.8887 0)
# Probe 651 (0.70268 0.42339 0)
# Probe 652 (0.68645 0.42051 0)
# Probe 653 (0.71958 0.42599 0)
# Probe 654 (0.4121 0.15002 0)
# Probe 655 (0.40788 0.11796 0)
# Probe 656 (0.37899 0.13919 0)
# Probe 657 (0.37412 0.10311 0)
# Probe 658 (0.3418 0.12789 0)
# Probe 659 (0.33523 0.08922 0)
# Probe 660 (0.25755 0.11185 0)
# Probe 661 (0.40249 0.53327 0)
# Probe 662 (0.5107 0.14064 0)
# Probe 663 (0.53423 0.12424 0)
# Probe 664 (0.10787 0.24114 0)
# Probe 665 (0.66877 0.2868 0)
# Probe 666 (0.68428 0.29445 0)
# Probe 667 (0.70069 0.28564 0)
# Probe 668 (0.36628 0.0648 0)
# Probe 669 (0.8 0.51724 0)
# Probe 670 (0.80859 0.54388 0)
# Probe 671 (0.78881 0.56288 0)
# Probe 672 (0.2217 0.09641 0)
# Probe 673 (0.63627 0.8984 0)
# Probe 674 (0.67154 0.87506 0)
# Probe 675 (0.64115 0.27059 0)
# Probe 676 (0.93157 0.31831 0)
# Probe 677 (0.65543 0.27614 0)
# Probe 678 (0.14954 0.11006 0)
# Probe 679 (0.59847 0.59375 0)
# Probe 680 (0.21319 0.89657 0)
# Probe 681 (0.16877 0.88334 0)
# Probe 682 (0.25759 0.91052 0)
# Probe 683 (0.1571 0.84148 0)
# Probe 684 (0.12367 0.87163 0)
# Probe 685 (0.11434 0.82647 0)
# Probe 686 (0.48715 0.23885 0)
# Probe 687 (0.50307 0.24633 0)
# Probe 688 (0.50358 0.26146 0)
# Probe 689 (0.51535 0.25302 0)
# Probe 690 (0.51683 0.23732 0)
# Probe 691 (0.55988 0.1364 0)
# Probe 692 (0.12999 0.31348 0)
# Probe 693 (0.55821 0.07494 0)
# Probe 694 (0.22282 0.74673 0)
# Probe 695 (0.09054 0.67131 0)
# Probe 696 (0.83988 0.40842 0)
# Probe 697 (0.85367 0.38625 0)
# Probe 698 (0.4958 0.85422 0)
# Probe 699 (0.51622 0.89678 0)
# Probe 700 (0.55768 0.23334 0)
# Probe 701 (0.54263 0.24258 0)
# Probe 702 (0.65057 0.22819 0)
# Probe 703 (0.69339 0.39464 0)
# Probe 704 (0.68717 0.38118 0)
# Probe 705 (0.69774 0.36972 0)
# Probe 706 (0.43635 0.34328 0)
# Probe 707 (0.10469 0.08589 0)
# Probe 708 (0.61078 0.25461 0)
# Probe 709 (0.59995 0.24784 0)
# Probe 710 (0.90854 0.40053 0)
# Probe 711 (0.85857 0.2469 0)
# Probe 712 (0.45921 0.31102 0)
# Probe 713 (0.45945 0.29688 0)
# Probe 714 (0.49763 0.46606 0)
# Probe 715 (0.50173 0.47905 0)
# Probe 716 (0.08367 0.30809 0)
# Probe 717 (0.11039 0.35466 0)
# Probe 718 (0.67953 0.4319 0)
# Probe 719 (0.17524 0.34849 0)
# Probe 720 (0.21034 0.36226 0)
# Probe 721 (0.74285 0.2967 0)
# Probe 722 (0.45649 0.44823 0)
# Probe 723 (0.4662 0.4391 0)
# Probe 724 (0.62094 0.16833 0)
# Probe 725 (0.49828 0.49622 0)
# Probe 726 (0.93443 0.47439 0)
# Probe 727 (0.74035 0.40563 0)
# Probe 728 (0.50642 0.10953 0)
# Probe 729 (0.71043 0.3608 0)
# Probe 730 (0.69521 0.33127 0)
# Probe 731 (0.6891 0.31618 0)
# Probe 732 (0.65761 0.47428 0)
# Probe 733 (0.6424 0.47049 0)
# Probe 734 (0.6545 0.46143 0)
# Probe 735 (0.66092 0.4489 0)
# Probe 736 (0.67658 0.45112 0)
# Probe 737 (0.36862 0.35815 0)
# Probe 738 (0.63145 0.48048 0)
# Probe 739 (0.68273 0.51075 0)
# Probe 740 (0.66831 0.52492 0)
# Probe 741 (0.84103 0.08756 0)
# Probe 742 (0.07149 0.12258 0)
# Probe 743 (0.75155 0.4388 0)
# Probe 744 (0.36734 0.46985 0)
# Probe 745 (0.38809 0.47508 0)
# Probe 746 (0.38366 0.45305 0)
# Probe 747 (0.38139 0.43182 0)
# Probe 748 (0.36308 0.42248 0)
# Probe 749 (0.90155 0.12698 0)
# Probe 750 (0.91677 0.16943 0)
# Probe 751 (0.9251 0.08608 0)
# Probe 752 (0.58078 0.52151 0)
# Probe 753 (0.57423 0.5069 0)
# Probe 754 (0.5606 0.5032 0)
# Probe 755 (0.57141 0.49494 0)
# Probe 756 (0.55925 0.48892 0)
# Probe 757 (0.54855 0.49828 0)
# Probe 758 (0.58416 0.49732 0)
# Probe 759 (0.38471 0.30089 0)
# Probe 760 (0.85885 0.54947 0)
# Probe 761 (0.14301 0.91651 0)
# Probe 762 (0.62828 0.26337 0)
# Probe 763 (0.45213 0.42014 0)
# Probe 764 (0.45043 0.40715 0)
# Probe 765 (0.43837 0.39883 0)
# Probe 766 (0.43739 0.38331 0)
# Probe 767 (0.44839 0.37248 0)
# Probe 768 (0.72289 0.2498 0)
# Probe 769 (0.71191 0.22624 0)
# Probe 770 (0.0585 0.69856 0)
# Probe 771 (0.58778 0.12194 0)
# Probe 772 (0.49585 0.45274 0)
# Probe 773 (0.65156 0.56823 0)
# Probe 774 (0.47734 0.04195 0)
# Probe 775 (0.35018 0.32657 0)
# Probe 776 (0.7095 0.1164 0)
# Probe 777 (0.7239 0.08568 0)
# Probe 778 (0.70296 0.05239 0)
# Probe 779 (0.90667 0.66301 0)
# Probe 780 (0.60794 0.50223 0)
# Probe 781 (0.60368 0.48845 0)
# Probe 782 (0.6834 0.24203 0)
# Probe 783 (0.79395 0.63621 0)
# Probe 784 (0.76006 0.6296 0)
# Probe 785 (0.73498 0.65404 0)
# Probe 786 (0.78172 0.60605 0)
# Probe 787 (0.46634 0.5793 0)
# Probe 788 (0.46088 0.55521 0)
# Probe 789 (0.48506 0.56618 0)
# Probe 790 (0.50715 0.57149 0)
# Probe 791 (0.5172 0.59233 0)
# Probe 792 (0.53937 0.57865 0)
# Probe 793 (0.45222 0.39372 0)
# Probe 794 (0.52809 0.5052 0)
# Probe 795 (0.52537 0.49175 0)
# Probe 796 (0.32507 0.04443 0)
# Probe 797 (0.619 0.47819 0)
# Probe 798 (0.68866 0.53193 0)
# Probe 799 (0.65156 0.53667 0)
# Probe 800 (0.6706 0.30238 0)
# Probe 801 (0.30284 0.12562 0)
# Probe 802 (0.30022 0.16736 0)
# Probe 803 (0.23016 0.47034 0)
# Probe 804 (0.26391 0.48235 0)
# Probe 805 (0.25493 0.44651 0)
# Probe 806 (0.25019 0.41311 0)
# Probe 807 (0.22215 0.39708 0)
# Probe 808 (0.49146 0.27304 0)
# Probe 809 (0.47788 0.28215 0)
# Probe 810 (0.461 0.28068 0)
# Probe 811 (0.72619 0.49698 0)
# Probe 812 (0.44361 0.67666 0)
# Probe 813 (0.25134 0.54193 0)
# Probe 814 (0.28458 0.5635 0)
# Probe 815 (0.28946 0.59769 0)
# Probe 816 (0.27078 0.51524 0)
# Probe 817 (0.03919 0.32612 0)
# Probe 818 (0.55402 0.47759 0)
# Probe 819 (0.53334 0.47216 0)
# Probe 820 (0.53565 0.4826 0)
# Probe 821 (0.62533 0.21164 0)
# Probe 822 (0.23685 0.36915 0)
# Probe 823 (0.23833 0.33981 0)
# Probe 824 (0.48311 0.43438 0)
# Probe 825 (0.46825 0.40633 0)
# Probe 826 (0.4773 0.42535 0)
# Probe 827 (0.56468 0.47825 0)
# Probe 828 (0.58572 0.47752 0)
# Probe 829 (0.46116 0.37552 0)
# Probe 830 (0.46408 0.39599 0)
# Probe 831 (0.91096 0.56033 0)
# Probe 832 (0.46487 0.34367 0)
# Probe 833 (0.46089 0.36493 0)
# Probe 834 (0.45279 0.35872 0)
# Probe 835 (0.52359 0.46812 0)
# Probe 836 (0.51405 0.47424 0)
# Probe 837 (0.59817 0.47656 0)
# Probe 838 (0.35051 0.39172 0)
# Probe 839 (0.74301 0.68915 0)
# Probe 840 (0.71241 0.67617 0)
# Probe 841 (0.70363 0.64277 0)
# Probe 842 (0.49893 0.75151 0)
# Probe 843 (0.51935 0.7252 0)
# Probe 844 (0.50663 0.68899 0)
# Probe 845 (0.35308 0.16565 0)
# Probe 846 (0.46808 0.3334 0)
# Probe 847 (0.47729 0.3144 0)
# Probe 848 (0.69729 0.40894 0)
# Probe 849 (0.63503 0.45932 0)
# Probe 850 (0.65052 0.44361 0)
# Probe 851 (0.82481 0.04466 0)
# Probe 852 (0.2713 0.18994 0)
# Probe 853 (0.3079 0.20364 0)
# Probe 854 (0.26194 0.61951 0)
# Probe 855 (0.62931 0.56202 0)
# Probe 856 (0.66764 0.41635 0)
# Probe 857 (0.65705 0.43456 0)
# Probe 858 (0.04193 0.42391 0)
# Probe 859 (0.08301 0.3986 0)
# Probe 860 (0.60764 0.26638 0)
# Probe 861 (0.62744 0.27615 0)
# Probe 862 (0.48149 0.48839 0)
# Probe 863 (0.75507 0.33018 0)
# Probe 864 (0.55415 0.26253 0)
# Probe 865 (0.55826 0.25001 0)
# Probe 866 (0.68883 0.34715 0)
# Probe 867 (0.67204 0.40651 0)
# Probe 868 (0.68375 0.40488 0)
# Probe 869 (0.2214 0.0485 0)
# Probe 870 (0.59635 0.26511 0)
# Probe 871 (0.57575 0.261 0)
# Probe 872 (0.49768 0.29007 0)
# Probe 873 (0.51445 0.27724 0)
# Probe 874 (0.68041 0.32615 0)
# Probe 875 (0.66382 0.31422 0)
# Probe 876 (0.63589 0.28266 0)
# Probe 877 (0.65038 0.29721 0)
# Probe 878 (0.4655 0.42623 0)
# Probe 879 (0.5205 0.94971 0)
# Probe 880 (0.62369 0.96089 0)
# Probe 881 (0.38247 0.41048 0)
# Probe 882 (0.39323 0.72446 0)
# Probe 883 (0.3901 0.69029 0)
# Probe 884 (0.71299 0.71378 0)
# Probe 885 (0.51259 0.48745 0)
# Probe 886 (0.47297 0.77893 0)
# Probe 887 (0.5241 0.47939 0)
# Probe 888 (0.27621 0.95587 0)
# Probe 889 (0.38147 0.52116 0)
# Probe 890 (0.08946 0.90793 0)
# Probe 891 (0.48982 0.29741 0)
# Probe 892 (0.47742 0.44411 0)
# Probe 893 (0.67784 0.3541 0)
# Probe 894 (0.68759 0.35902 0)
# Probe 895 (0.04167 0.22091 0)
# Probe 896 (0.52118 0.21875 0)
# Probe 897 (0.27452 0.22754 0)
# Probe 898 (0.53349 0.26796 0)
# Probe 899 (0.5359 0.25651 0)
# Probe 900 (0.95765 0.72335 0)
# Probe 901 (0.9571 0.77334 0)
# Probe 902 (0.91485 0.79829 0)
# Probe 903 (0.91363 0.84738 0)
# Probe 904 (0.87364 0.82252 0)
# Probe 905 (0.87219 0.86976 0)
# Probe 906 (0.83283 0.84557 0)
# Probe 907 (0.88099 0.77312 0)
# Probe 908 (0.83098 0.89433 0)
# Probe 909 (0.79175 0.86868 0)
# Probe 910 (0.87042 0.91681 0)
# Probe 911 (0.78923 0.91717 0)
# Probe 912 (0.75156 0.89111 0)
# Probe 913 (0.75299 0.83777 0)
# Probe 914 (0.75025 0.93643 0)
# Probe 915 (0.70959 0.9135 0)
# Probe 916 (0.91972 0.74927 0)
# Probe 917 (0.79355 0.82216 0)
# Probe 918 (0.08468 0.44849 0)
# Probe 919 (0.09347 0.49807 0)
# Probe 920 (0.04608 0.52077 0)
# Probe 921 (0.08755 0.5443 0)
# Probe 922 (0.04805 0.56598 0)
# Probe 923 (0.09278 0.58379 0)
# Probe 924 (0.95608 0.8731 0)
# Probe 925 (0.22215 0.94708 0)
# Probe 926 (0.54793 0.5133 0)
# Probe 927 (0.41267 0.66869 0)
# Probe 928 (0.40538 0.63784 0)
# Probe 929 (0.96021 0.62131 0)
# Probe 930 (0.59142 0.4874 0)
# Probe 931 (0.41034 0.24884 0)
# Probe 932 (0.4235 0.95731 0)
# Probe 933 (0.37719 0.95659 0)
# Probe 934 (0.56465 0.61161 0)
# Probe 935 (0.5579 0.16558 0)
# Probe 936 (0.36243 0.29076 0)
# Probe 937 (0.40193 0.29148 0)
# Probe 938 (0.2919 0.08213 0)
# Probe 939 (0.7305 0.62006 0)
# Probe 940 (0.35813 0.71039 0)
# Probe 941 (0.55825 0.58598 0)
# Probe 942 (0.12561 0.03983 0)
# Probe 943 (0.71216 0.29915 0)
# Probe 944 (0.64677 0.70571 0)
# Probe 945 (0.66568 0.68415 0)
# Probe 946 (0.59553 0.16706 0)
# Probe 947 (0.47153 0.30433 0)
# Probe 948 (0.96325 0.26942 0)
# Probe 949 (0.29735 0.49487 0)
# Probe 950 (0.88967 0.20065 0)
# Probe 951 (0.50201 0.22884 0)
# Probe 952 (0.8438 0.27848 0)
# Probe 953 (0.08488 0.20085 0)
# Probe 954 (0.04009 0.82624 0)
# Probe 955 (0.46971 0.2258 0)
# Probe 956 (0.81774 0.57314 0)
# Probe 957 (0.70697 0.48699 0)
# Probe 958 (0.83707 0.79059 0)
# Probe 959 (0.46033 0.32525 0)
# Probe 960 (0.48399 0.81614 0)
# Probe 961 (0.1883 0.8076 0)
# Probe 962 (0.71167 0.2691 0)
# Probe 963 (0.71469 0.86454 0)
# Probe 964 (0.41462 0.56593 0)
# Probe 965 (0.66627 0.04415 0)
# Probe 966 (0.34282 0.68265 0)
# Probe 967 (0.34443 0.81622 0)
# Probe 968 (0.47233 0.68335 0)
# Probe 969 (0.54888 0.92014 0)
# Probe 970 (0.55569 0.56546 0)
# Probe 971 (0.50608 0.45848 0)