# Probe 0 (0 0 0)
# Probe 1 (1 0 0)
# Probe 2 (1 1 0)
# Probe 3 (0 1 0)
# Probe 4 (0.87 0.49 0)
# Probe 5 (0.77 0.39 0)
# Probe 6 (0.67 0.49 0)
# Probe 7 (0.77 0.59 0)
# Probe 8 (0.05 0 0)
# Probe 9 (0.1 0 0)
# Probe 10 (0.15 0 0)
# Probe 11 (0.2 0 0)
# Probe 12 (0.25 0 0)
# Probe 13 (0.3 0 0)
# Probe 14 (0.35 0 0)
# Probe 15 (0.4 0 0)
# Probe 16 (0.45 0 0)
# Probe 17 (0.5 0 0)
# Probe 18 (0.55 0 0)
# Probe 19 (0.6 0 0)
# Probe 20 (0.65 0 0)
# Probe 21 (0.7 0 0)
# Probe 22 (0.75 0 0)
# Probe 23 (0.8 0 0)
# Probe 24 (0.85 0 0)
# Probe 25 (0.9 0 0)
# Probe 26 (0.95 0 0)
# Probe 27 (1 0.05 0)
# Probe 28 (1 0.1 0)
# Probe 29 (1 0.15 0)
# Probe 30 (1 0.2 0)
# Probe 31 (1 0.25 0)
# Probe 32 (1 0.3 0)
# Probe 33 (1 0.35 0)
# Probe 34 (1 0.4 0)
# Probe 35 (1 0.45 0)
# Probe 36 (1 0.5 0)
# Probe 37 (1 0.55 0)
# Probe 38 (1 0.6 0)
# Probe 39 (1 0.65 0)
# Probe 40 (1 0.7 0)
# Probe 41 (1 0.75 0)
# Probe 42 (1 0.8 0)
# Probe 43 (1 0.85 0)
# Probe 44 (1 0.9 0)
# Probe 45 (1 0.95 0)
# Probe 46 (0.95 1 0)
# Probe 47 (0.9 1 0)
# Probe 48 (0.85 1 0)
# Probe 49 (0.8 1 0)
# Probe 50 (0.75 1 0)
# Probe 51 (0.7 1 0)
# Probe 52 (0.65 1 0)
# Probe 53 (0.6 1 0)
# Probe 54 (0.55 1 0)
# Probe 55 (0.5 1 0)
# Probe 56 (0.45 1 0)
# Probe 57 (0.4 1 0)
# Probe 58 (0.35 1 0)
# Probe 59 (0.3 1 0)
# Probe 60 (0.25 1 0)
# Probe 61 (0.2 1 0)
# Probe 62 (0.15 1 0)
# Probe 63 (0.1 1 0)
# Probe 64 (0.05 1 0)
# Probe 65 (0 0.95 0)
# Probe 66 (0 0.9 0)
# Probe 67 (0 0.85 0)
# Probe 68 (0 0.8 0)
# Probe 69 (0 0.75 0)
# Probe 70 (0 0.7 0)
# Probe 71 (0 0.65 0)
# Probe 72 (0 0.6 0)
# Probe 73 (0 0.55 0)
# Probe 74 (0 0.5 0)
# Probe 75 (0 0.45 0)
# Probe 76 (0 0.4 0)
# Probe 77 (0 0.35 0)
# Probe 78 (0 0.3 0)
# Probe 79 (0 0.25 0)
# Probe 80 (0 0.2 0)
# Probe 81 (0 0.15 0)
# Probe 82 (0 0.1 0)
# Probe 83 (0 0.05 0)
# Probe 84 (0.86952 0.4802 0)
# Probe 85 (0.86808 0.47049 0)
# Probe 86 (0.86569 0.46097 0)
# Probe 87 (0.86239 0.45173 0)
# Probe 88 (0.85819 0.44286 0)
# Probe 89 (0.85315 0.43444 0)
# Probe 90 (0.8473 0.42656 0)
# Probe 91 (0.84071 0.41929 0)
# Probe 92 (0.83344 0.4127 0)
# Probe 93 (0.82556 0.40685 0)
# Probe 94 (0.81714 0.40181 0)
# Probe 95 (0.80827 0.39761 0)
# Probe 96 (0.79903 0.39431 0)
# Probe 97 (0.78951 0.39192 0)
# Probe 98 (0.7798 0.39048 0)
# Probe 99 (0.7602 0.39048 0)
# Probe 100 (0.75049 0.39192 0)
# Probe 101 (0.74097 0.39431 0)
# Probe 102 (0.73173 0.39761 0)
# Probe 103 (0.72286 0.40181 0)
# Probe 104 (0.71444 0.40685 0)
# Probe 105 (0.70656 0.4127 0)
# Probe 106 (0.69929 0.41929 0)
# Probe 107 (0.6927 0.42656 0)
# Probe 108 (0.68685 0.43444 0)
# Probe 109 (0.68181 0.44286 0)
# Probe 110 (0.67761 0.45173 0)
# Probe 111 (0.67431 0.46097 0)
# Probe 112 (0.67192 0.47049 0)
# Probe 113 (0.67048 0.4802 0)
# Probe 114 (0.67048 0.4998 0)
# Probe 115 (0.67192 0.50951 0)
# Probe 116 (0.67431 0.51903 0)
# Probe 117 (0.67761 0.52827 0)
# Probe 118 (0.68181 0.53714 0)
# Probe 119 (0.68685 0.54556 0)
# Probe 120 (0.6927 0.55344 0)
# Probe 121 (0.69929 0.56071 0)
# Probe 122 (0.70656 0.5673 0)
# Probe 123 (0.71444 0.57315 0)
# Probe 124 (0.72286 0.57819 0)
# Probe 125 (0.73173 0.58239 0)
# Probe 126 (0.74097 0.58569 0)
# Probe 127 (0.75049 0.58808 0)
# Probe 128 (0.7602 0.58952 0)
# Probe 129 (0.7798 0.58952 0)
# Probe 130 (0.78951 0.58808 0)
# Probe 131 (0.79903 0.58569 0)
# Probe 132 (0.80827 0.58239 0)
# Probe 133 (0.81714 0.57819 0)
# Probe 134 (0.82556 0.57315 0)
# Probe 135 (0.83344 0.5673 0)
# Probe 136 (0.84071 0.56071 0)
# Probe 137 (0.8473 0.55344 0)
# Probe 138 (0.85315 0.54556 0)
# Probe 139 (0.85819 0.53714 0)
# Probe 140 (0.86239 0.52827 0)
# Probe 141 (0.86569 0.51903 0)
# Probe 142 (0.86808 0.50951 0)
# Probe 143 (0.86952 0.4998 0)
# Probe 144 (0.04248 0.62115 0)
# Probe 145 (0.04106 0.37115 0)
# Probe 146 (0.37609 0.95804 0)
# Probe 147 (0.36832 0.04059 0)
# Probe 148 (0.52631 0.9584 0)
# Probe 149 (0.52437 0.0461 0)
# Probe 150 (0.67574 0.95848 0)
# Probe 151 (0.67739 0.04083 0)
# Probe 152 (0.96109 0.77771 0)
# Probe 153 (0.95685 0.22613 0)
# Probe 154 (0.83456 0.40295 0)
# Probe 155 (0.22803 0.95656 0)
# Probe 156 (0.04125 0.22499 0)
# Probe 157 (0.84278 0.5703 0)
# Probe 158 (0.22854 0.04149 0)
# Probe 159 (0.04483 0.77212 0)
# Probe 160 (0.85728 0.42515 0)
# Probe 161 (0.85809 0.55628 0)
# Probe 162 (0.86852 0.53646 0)
# Probe 163 (0.8685 0.44357 0)
# Probe 164 (0.87513 0.46367 0)
# Probe 165 (0.87682 0.51595 0)
# Probe 166 (0.87857 0.48468 0)
# Probe 167 (0.8235 0.03986 0)
# Probe 168 (0.81906 0.95508 0)
# Probe 169 (0.9567 0.675 0)
# Probe 170 (0.96036 0.3199 0)
# Probe 171 (0.04116 0.4776 0)
# Probe 172 (0.04328 0.87495 0)
# Probe 173 (0.04219 0.125 0)
# Probe 174 (0.95614 0.12846 0)
# Probe 175 (0.95706 0.87464 0)
# Probe 176 (0.9567 0.575 0)
# Probe 177 (0.96001 0.41977 0)
# Probe 178 (0.12139 0.04411 0)
# Probe 179 (0.12181 0.95508 0)
# Probe 180 (0.92692 0.03907 0)
# Probe 181 (0.92202 0.95243 0)
# Probe 182 (0.95882 0.6158 0)
# Probe 183 (0.92382 0.6535 0)
# Probe 184 (0.92589 0.59534 0)
# Probe 185 (0.92192 0.5659 0)
# Probe 186 (0.89765 0.58085 0)
# Probe 187 (0.90026 0.55434 0)
# Probe 188 (0.91618 0.54 0)
# Probe 189 (0.89939 0.60896 0)
# Probe 190 (0.87823 0.5974 0)
# Probe 191 (0.87824 0.62108 0)
# Probe 192 (0.81671 0.58863 0)
# Probe 193 (0.85807 0.6074 0)
# Probe 194 (0.8587 0.63125 0)
# Probe 195 (0.84113 0.62005 0)
# Probe 196 (0.8402 0.64155 0)
# Probe 197 (0.7859 0.59721 0)
# Probe 198 (0.85818 0.65316 0)
# Probe 199 (0.83864 0.66362 0)
# Probe 200 (0.81909 0.64901 0)
# Probe 201 (0.81867 0.67347 0)
# Probe 202 (0.80026 0.66154 0)
# Probe 203 (0.7989 0.68365 0)
# Probe 204 (0.78023 0.67157 0)
# Probe 205 (0.77883 0.69391 0)
# Probe 206 (0.7598 0.68144 0)
# Probe 207 (0.75843 0.70393 0)
# Probe 208 (0.73981 0.69131 0)
# Probe 209 (0.72366 0.58797 0)
# Probe 210 (0.73745 0.71444 0)
# Probe 211 (0.71637 0.70006 0)
# Probe 212 (0.77888 0.71843 0)
# Probe 213 (0.71573 0.7255 0)
# Probe 214 (0.69449 0.71278 0)
# Probe 215 (0.69327 0.73709 0)
# Probe 216 (0.67237 0.72243 0)
# Probe 217 (0.6762 0.69551 0)
# Probe 218 (0.65276 0.70763 0)
# Probe 219 (0.69655 0.57064 0)
# Probe 220 (0.65454 0.68284 0)
# Probe 221 (0.63313 0.69366 0)
# Probe 222 (0.63496 0.6702 0)
# Probe 223 (0.61382 0.68022 0)
# Probe 224 (0.61556 0.6568 0)
# Probe 225 (0.59279 0.66676 0)
# Probe 226 (0.59601 0.64319 0)
# Probe 227 (0.57279 0.65252 0)
# Probe 228 (0.57648 0.6293 0)
# Probe 229 (0.55457 0.6388 0)
# Probe 230 (0.55745 0.61573 0)
# Probe 231 (0.5353 0.62556 0)
# Probe 232 (0.53873 0.59722 0)
# Probe 233 (0.51507 0.61079 0)
# Probe 234 (0.51684 0.5856 0)
# Probe 235 (0.49353 0.59658 0)
# Probe 236 (0.49662 0.57172 0)
# Probe 237 (0.47137 0.58161 0)
# Probe 238 (0.47882 0.55189 0)
# Probe 239 (0.4486 0.56507 0)
# Probe 240 (0.45172 0.5351 0)
# Probe 241 (0.66223 0.50731 0)
# Probe 242 (0.44558 0.59427 0)
# Probe 243 (0.42351 0.54818 0)
# Probe 244 (0.4265 0.51795 0)
# Probe 245 (0.45443 0.50504 0)
# Probe 246 (0.42743 0.48772 0)
# Probe 247 (0.45743 0.47488 0)
# Probe 248 (0.43005 0.45691 0)
# Probe 249 (0.46023 0.44482 0)
# Probe 250 (0.66251 0.47372 0)
# Probe 251 (0.43534 0.42545 0)
# Probe 252 (0.467 0.41201 0)
# Probe 253 (0.53161 0.64881 0)
# Probe 254 (0.43941 0.39333 0)
# Probe 255 (0.46918 0.37848 0)
# Probe 256 (0.40043 0.4358 0)
# Probe 257 (0.39782 0.53079 0)
# Probe 258 (0.6735 0.53541 0)
# Probe 259 (0.58876 0.69154 0)
# Probe 260 (0.65093 0.73268 0)
# Probe 261 (0.44267 0.3609 0)
# Probe 262 (0.47311 0.34752 0)
# Probe 263 (0.51766 0.56395 0)
# Probe 264 (0.49913 0.36648 0)
# Probe 265 (0.67704 0.43428 0)
# Probe 266 (0.50327 0.3349 0)
# Probe 267 (0.47708 0.31484 0)
# Probe 268 (0.50793 0.30308 0)
# Probe 269 (0.53361 0.32331 0)
# Probe 270 (0.53801 0.29187 0)
# Probe 271 (0.5633 0.30955 0)
# Probe 272 (0.69773 0.41039 0)
# Probe 273 (0.56692 0.28043 0)
# Probe 274 (0.59295 0.30187 0)
# Probe 275 (0.59518 0.27028 0)
# Probe 276 (0.61877 0.28767 0)
# Probe 277 (0.72366 0.39203 0)
# Probe 278 (0.62216 0.25946 0)
# Probe 279 (0.77553 0.38143 0)
# Probe 280 (0.6442 0.27707 0)
# Probe 281 (0.48316 0.2815 0)
# Probe 282 (0.64855 0.24902 0)
# Probe 283 (0.67031 0.26665 0)
# Probe 284 (0.67491 0.23885 0)
# Probe 285 (0.69725 0.25641 0)
# Probe 286 (0.71506 0.75125 0)
# Probe 287 (0.58361 0.32745 0)
# Probe 288 (0.57829 0.60725 0)
# Probe 289 (0.6684 0.45356 0)
# Probe 290 (0.68314 0.5544 0)
# Probe 291 (0.74364 0.38366 0)
# Probe 292 (0.74367 0.59513 0)
# Probe 293 (0.76468 0.59825 0)
# Probe 294 (0.79627 0.38358 0)
# Probe 295 (0.70147 0.22798 0)
# Probe 296 (0.72451 0.24624 0)
# Probe 297 (0.81641 0.39176 0)
# Probe 298 (0.62428 0.23038 0)
# Probe 299 (0.48486 0.46386 0)
# Probe 300 (0.64052 0.30385 0)
# Probe 301 (0.61545 0.63382 0)
# Probe 302 (0.65498 0.6595 0)
# Probe 303 (0.69094 0.28331 0)
# Probe 304 (0.72907 0.21661 0)
# Probe 305 (0.7522 0.2357 0)
# Probe 306 (0.7464 0.26804 0)
# Probe 307 (0.77439 0.25496 0)
# Probe 308 (0.78058 0.22518 0)
# Probe 309 (0.83606 0.68715 0)
# Probe 310 (0.77094 0.28316 0)
# Probe 311 (0.7961 0.27283 0)
# Probe 312 (0.74208 0.66621 0)
# Probe 313 (0.70488 0.19742 0)
# Probe 314 (0.44996 0.29445 0)
# Probe 315 (0.45612 0.25884 0)
# Probe 316 (0.42133 0.27245 0)
# Probe 317 (0.42616 0.23605 0)
# Probe 318 (0.3911 0.25036 0)
# Probe 319 (0.46286 0.22193 0)
# Probe 320 (0.38629 0.28738 0)
# Probe 321 (0.35581 0.2655 0)
# Probe 322 (0.35052 0.30346 0)
# Probe 323 (0.31965 0.27995 0)
# Probe 324 (0.31469 0.31934 0)
# Probe 325 (0.283 0.29596 0)
# Probe 326 (0.27786 0.33564 0)
# Probe 327 (0.24547 0.31203 0)
# Probe 328 (0.24024 0.35188 0)
# Probe 329 (0.25673 0.27155 0)
# Probe 330 (0.35796 0.22921 0)
# Probe 331 (0.27306 0.37622 0)
# Probe 332 (0.23563 0.39248 0)
# Probe 333 (0.26825 0.41641 0)
# Probe 334 (0.23275 0.4329 0)
# Probe 335 (0.26379 0.45645 0)
# Probe 336 (0.22865 0.47284 0)
# Probe 337 (0.25914 0.49651 0)
# Probe 338 (0.22272 0.51241 0)
# Probe 339 (0.25452 0.53587 0)
# Probe 340 (0.21803 0.55203 0)
# Probe 341 (0.24771 0.57558 0)
# Probe 342 (0.21294 0.5919 0)
# Probe 343 (0.2431 0.61591 0)
# Probe 344 (0.20742 0.63199 0)
# Probe 345 (0.24111 0.657 0)
# Probe 346 (0.28126 0.635 0)
# Probe 347 (0.27563 0.68092 0)
# Probe 348 (0.23764 0.69864 0)
# Probe 349 (0.27193 0.72293 0)
# Probe 350 (0.3098 0.70562 0)
# Probe 351 (0.23337 0.74102 0)
# Probe 352 (0.30599 0.74649 0)
# Probe 353 (0.34176 0.73111 0)
# Probe 354 (0.33941 0.76983 0)
# Probe 355 (0.37436 0.7548 0)
# Probe 356 (0.30281 0.78758 0)
# Probe 357 (0.39494 0.56231 0)
# Probe 358 (0.69062 0.7642 0)
# Probe 359 (0.71579 0.77981 0)
# Probe 360 (0.68751 0.7938 0)
# Probe 361 (0.71378 0.81113 0)
# Probe 362 (0.74205 0.79599 0)
# Probe 363 (0.43111 0.19856 0)
# Probe 364 (0.79165 0.29933 0)
# Probe 365 (0.8172 0.2899 0)
# Probe 366 (0.76822 0.30836 0)
# Probe 367 (0.37289 0.79202 0)
# Probe 368 (0.40761 0.77502 0)
# Probe 369 (0.4091 0.73579 0)
# Probe 370 (0.44219 0.7587 0)
# Probe 371 (0.43899 0.7959 0)
# Probe 372 (0.47243 0.77954 0)
# Probe 373 (0.20912 0.33028 0)
# Probe 374 (0.49148 0.62308 0)
# Probe 375 (0.73471 0.18508 0)
# Probe 376 (0.57136 0.25013 0)
# Probe 377 (0.19793 0.71615 0)
# Probe 378 (0.1938 0.76027 0)
# Probe 379 (0.7414 0.82982 0)
# Probe 380 (0.7733 0.8122 0)
# Probe 381 (0.68468 0.8256 0)
# Probe 382 (0.65822 0.80712 0)
# Probe 383 (0.3537 0.69129 0)
# Probe 384 (0.46852 0.1839 0)
# Probe 385 (0.65401 0.84064 0)
# Probe 386 (0.62621 0.82075 0)
# Probe 387 (0.47035 0.81631 0)
# Probe 388 (0.18343 0.56813 0)
# Probe 389 (0.81039 0.31886 0)
# Probe 390 (0.83796 0.30737 0)
# Probe 391 (0.84439 0.27957 0)
# Probe 392 (0.20188 0.41489 0)
# Probe 393 (0.62239 0.85585 0)
# Probe 394 (0.47544 0.74399 0)
# Probe 395 (0.50389 0.76335 0)
# Probe 396 (0.19029 0.48431 0)
# Probe 397 (0.43572 0.83394 0)
# Probe 398 (0.5926 0.83515 0)
# Probe 399 (0.59596 0.79814 0)
# Probe 400 (0.83331 0.33314 0)
# Probe 401 (0.29506 0.47955 0)
# Probe 402 (0.70841 0.16443 0)
# Probe 403 (0.74076 0.15098 0)
# Probe 404 (0.78133 0.65085 0)
# Probe 405 (0.36822 0.54406 0)
# Probe 406 (0.35173 0.34565 0)
# Probe 407 (0.436 0.15905 0)
# Probe 408 (0.85862 0.32383 0)
# Probe 409 (0.85435 0.35219 0)
# Probe 410 (0.36528 0.57722 0)
# Probe 411 (0.77152 0.84951 0)
# Probe 412 (0.80395 0.83191 0)
# Probe 413 (0.80603 0.79365 0)
# Probe 414 (0.83684 0.81337 0)
# Probe 415 (0.83804 0.77585 0)
# Probe 416 (0.50629 0.7289 0)
# Probe 417 (0.47988 0.71111 0)
# Probe 418 (0.46772 0.85571 0)
# Probe 419 (0.15724 0.73411 0)
# Probe 420 (0.15261 0.77918 0)
# Probe 421 (0.19024 0.80569 0)
# Probe 422 (0.37032 0.50951 0)
# Probe 423 (0.73831 0.86653 0)
# Probe 424 (0.83739 0.85139 0)
# Probe 425 (0.4742 0.14452 0)
# Probe 426 (0.50595 0.16976 0)
# Probe 427 (0.6769 0.17819 0)
# Probe 428 (0.53362 0.74763 0)
# Probe 429 (0.15069 0.82548 0)
# Probe 430 (0.68058 0.14265 0)
# Probe 431 (0.6474 0.1574 0)
# Probe 432 (0.59243 0.87175 0)
# Probe 433 (0.87894 0.34074 0)
# Probe 434 (0.87672 0.3663 0)
# Probe 435 (0.88037 0.31697 0)
# Probe 436 (0.81161 0.34295 0)
# Probe 437 (0.56632 0.81996 0)
# Probe 438 (0.44214 0.11822 0)
# Probe 439 (0.40276 0.13375 0)
# Probe 440 (0.4324 0.87369 0)
# Probe 441 (0.3387 0.55857 0)
# Probe 442 (0.1869 0.852 0)
# Probe 443 (0.30482 0.40043 0)
# Probe 444 (0.90011 0.35661 0)
# Probe 445 (0.89481 0.38202 0)
# Probe 446 (0.92555 0.37321 0)
# Probe 447 (0.53615 0.71606 0)
# Probe 448 (0.87171 0.79175 0)
# Probe 449 (0.86902 0.75672 0)
# Probe 450 (0.51221 0.13022 0)
# Probe 451 (0.54276 0.15607 0)
# Probe 452 (0.54911 0.1175 0)
# Probe 453 (0.5615 0.73339 0)
# Probe 454 (0.65114 0.12009 0)
# Probe 455 (0.40895 0.37398 0)
# Probe 456 (0.87143 0.38982 0)
# Probe 457 (0.88941 0.40425 0)
# Probe 458 (0.16206 0.68931 0)
# Probe 459 (0.12071 0.70754 0)
# Probe 460 (0.12446 0.6622 0)
# Probe 461 (0.22831 0.83254 0)
# Probe 462 (0.77043 0.88842 0)
# Probe 463 (0.65221 0.87716 0)
# Probe 464 (0.39291 0.5959 0)
# Probe 465 (0.36285 0.61117 0)
# Probe 466 (0.39133 0.63084 0)
# Probe 467 (0.46591 0.8949 0)
# Probe 468 (0.4999 0.87708 0)
# Probe 469 (0.83956 0.60244 0)
# Probe 470 (0.82546 0.61058 0)
# Probe 471 (0.39947 0.85144 0)
# Probe 472 (0.53621 0.19385 0)
# Probe 473 (0.57255 0.18115 0)
# Probe 474 (0.14493 0.87303 0)
# Probe 475 (0.73435 0.90662 0)
# Probe 476 (0.76859 0.17312 0)
# Probe 477 (0.77478 0.13814 0)
# Probe 478 (0.80513 0.16167 0)
# Probe 479 (0.74547 0.11368 0)
# Probe 480 (0.80792 0.12385 0)
# Probe 481 (0.84137 0.14948 0)
# Probe 482 (0.83071 0.19249 0)
# Probe 483 (0.8715 0.17666 0)
# Probe 484 (0.86435 0.21543 0)
# Probe 485 (0.84225 0.10777 0)
# Probe 486 (0.83778 0.74161 0)
# Probe 487 (0.86512 0.72119 0)
# Probe 488 (0.89855 0.73856 0)
# Probe 489 (0.8963 0.70493 0)
# Probe 490 (0.87599 0.57654 0)
# Probe 491 (0.68213 0.11046 0)
# Probe 492 (0.61612 0.13422 0)
# Probe 493 (0.62116 0.09359 0)
# Probe 494 (0.22445 0.87728 0)
# Probe 495 (0.26664 0.85878 0)
# Probe 496 (0.41523 0.34019 0)
# Probe 497 (0.08257 0.68373 0)
# Probe 498 (0.92781 0.72105 0)
# Probe 499 (0.39578 0.8909 0)
# Probe 500 (0.36099 0.86832 0)
# Probe 501 (0.25908 0.91226 0)
# Probe 502 (0.56026 0.76451 0)
# Probe 503 (0.58681 0.74842 0)
# Probe 504 (0.11195 0.80443 0)
# Probe 505 (0.78454 0.32308 0)
# Probe 506 (0.76425 0.33059 0)
# Probe 507 (0.74851 0.31731 0)
# Probe 508 (0.7461 0.33768 0)
# Probe 509 (0.73077 0.32633 0)
# Probe 510 (0.72967 0.34699 0)
# Probe 511 (0.71423 0.33393 0)
# Probe 512 (0.71202 0.35178 0)
# Probe 513 (0.69739 0.34094 0)
# Probe 514 (0.69552 0.35828 0)
# Probe 515 (0.68123 0.34792 0)
# Probe 516 (0.67893 0.36744 0)
# Probe 517 (0.66497 0.35529 0)
# Probe 518 (0.66158 0.37308 0)
# Probe 519 (0.64863 0.36199 0)
# Probe 520 (0.64572 0.38071 0)
# Probe 521 (0.63146 0.36907 0)
# Probe 522 (0.62941 0.38765 0)
# Probe 523 (0.64357 0.39875 0)
# Probe 524 (0.62772 0.40569 0)
# Probe 525 (0.61281 0.39543 0)
# Probe 526 (0.61117 0.41404 0)
# Probe 527 (0.59498 0.40349 0)
# Probe 528 (0.59385 0.42312 0)
# Probe 529 (0.6127 0.43379 0)
# Probe 530 (0.59356 0.4425 0)
# Probe 531 (0.60929 0.45313 0)
# Probe 532 (0.59253 0.46141 0)
# Probe 533 (0.60797 0.47121 0)
# Probe 534 (0.59179 0.47994 0)
# Probe 535 (0.60699 0.48948 0)
# Probe 536 (0.59089 0.49812 0)
# Probe 537 (0.60902 0.50838 0)
# Probe 538 (0.57605 0.43376 0)
# Probe 539 (0.59056 0.51639 0)
# Probe 540 (0.60554 0.52608 0)
# Probe 541 (0.57055 0.50552 0)
# Probe 542 (0.58947 0.53446 0)
# Probe 543 (0.60465 0.54416 0)
# Probe 544 (0.57498 0.46865 0)
# Probe 545 (0.62019 0.53606 0)
# Probe 546 (0.6194 0.55304 0)
# Probe 547 (0.64211 0.41508 0)
# Probe 548 (0.62299 0.49684 0)
# Probe 549 (0.62381 0.4641 0)
# Probe 550 (0.63676 0.5455 0)
# Probe 551 (0.63448 0.56182 0)
# Probe 552 (0.61916 0.57006 0)
# Probe 553 (0.63396 0.57791 0)
# Probe 554 (0.64812 0.57014 0)
# Probe 555 (0.64805 0.58564 0)
# Probe 556 (0.58817 0.55325 0)
# Probe 557 (0.63498 0.52956 0)
# Probe 558 (0.66172 0.57789 0)
# Probe 559 (0.66233 0.59341 0)
# Probe 560 (0.65645 0.40907 0)
# Probe 561 (0.57178 0.54286 0)
# Probe 562 (0.69465 0.37503 0)
# Probe 563 (0.61901 0.58627 0)
# Probe 564 (0.59595 0.38376 0)
# Probe 565 (0.57693 0.39222 0)
# Probe 566 (0.64816 0.60164 0)
# Probe 567 (0.66216 0.60884 0)
# Probe 568 (0.67643 0.60094 0)
# Probe 569 (0.67542 0.61613 0)
# Probe 570 (0.68992 0.60778 0)
# Probe 571 (0.68944 0.62374 0)
# Probe 572 (0.70392 0.61499 0)
# Probe 573 (0.70489 0.63141 0)
# Probe 574 (0.71741 0.62192 0)
# Probe 575 (0.6819 0.32863 0)
# Probe 576 (0.57191 0.56374 0)
# Probe 577 (0.76016 0.34922 0)
# Probe 578 (0.68967 0.64058 0)
# Probe 579 (0.70636 0.64876 0)
# Probe 580 (0.63371 0.34947 0)
# Probe 581 (0.73118 0.30742 0)
# Probe 582 (0.72435 0.36278 0)
# Probe 583 (0.69074 0.65863 0)
# Probe 584 (0.65537 0.42414 0)
# Probe 585 (0.64156 0.43004 0)
# Probe 586 (0.64903 0.53579 0)
# Probe 587 (0.70284 0.60052 0)
# Probe 588 (0.64837 0.61808 0)
# Probe 589 (0.66113 0.56281 0)
# Probe 590 (0.64802 0.52339 0)
# Probe 591 (0.57813 0.37081 0)
# Probe 592 (0.55799 0.37987 0)
# Probe 593 (0.58828 0.57341 0)
# Probe 594 (0.55591 0.40336 0)
# Probe 595 (0.63336 0.60904 0)
# Probe 596 (0.61519 0.35725 0)
# Probe 597 (0.70772 0.66713 0)
# Probe 598 (0.65319 0.43845 0)
# Probe 599 (0.64045 0.44352 0)
# Probe 600 (0.66724 0.41824 0)
# Probe 601 (0.66979 0.40418 0)
# Probe 602 (0.67328 0.56978 0)
# Probe 603 (0.53689 0.39108 0)
# Probe 604 (0.53448 0.4157 0)
# Probe 605 (0.63604 0.51603 0)
# Probe 606 (0.56069 0.35774 0)
# Probe 607 (0.51436 0.40195 0)
# Probe 608 (0.51188 0.42741 0)
# Probe 609 (0.53703 0.4431 0)
# Probe 610 (0.61795 0.33603 0)
# Probe 611 (0.89567 0.5321 0)
# Probe 612 (0.91124 0.51614 0)
# Probe 613 (0.93565 0.52392 0)
# Probe 614 (0.92779 0.49844 0)
# Probe 615 (0.8605 0.587 0)
# Probe 616 (0.55411 0.55114 0)
# Probe 617 (0.55347 0.5294 0)
# Probe 618 (0.82938 0.23077 0)
# Probe 619 (0.67927 0.41417 0)
# Probe 620 (0.68309 0.399 0)
# Probe 621 (0.90003 0.20408 0)
# Probe 622 (0.89092 0.23865 0)
# Probe 623 (0.7727 0.92968 0)
# Probe 624 (0.82943 0.35619 0)
# Probe 625 (0.8426 0.37131 0)
# Probe 626 (0.80992 0.36435 0)
# Probe 627 (0.79487 0.35295 0)
# Probe 628 (0.90297 0.49434 0)
# Probe 629 (0.91932 0.4734 0)
# Probe 630 (0.94559 0.4758 0)
# Probe 631 (0.28328 0.56301 0)
# Probe 632 (0.82637 0.37409 0)
# Probe 633 (0.74605 0.35583 0)
# Probe 634 (0.75909 0.36439 0)
# Probe 635 (0.77188 0.36074 0)
# Probe 636 (0.67323 0.39203 0)
# Probe 637 (0.55337 0.57502 0)
# Probe 638 (0.64901 0.55583 0)
# Probe 639 (0.66243 0.55087 0)
# Probe 640 (0.41047 0.09199 0)
# Probe 641 (0.36982 0.11007 0)
# Probe 642 (0.36359 0.14992 0)
# Probe 643 (0.32851 0.12481 0)
# Probe 644 (0.32313 0.16692 0)
# Probe 645 (0.28734 0.1409 0)
# Probe 646 (0.28144 0.18496 0)
# Probe 647 (0.2459 0.15801 0)
# Probe 648 (0.29385 0.08933 0)
# Probe 649 (0.45389 0.07816 0)
# Probe 650 (0.23944 0.20099 0)
# Probe 651 (0.20401 0.17482 0)
# Probe 652 (0.19758 0.21839 0)
# Probe 653 (0.16269 0.19229 0)
# Probe 654 (0.15734 0.23777 0)
# Probe 655 (0.16781 0.14654 0)
# Probe 656 (0.12576 0.16956 0)
# Probe 657 (0.1293 0.12418 0)
# Probe 658 (0.17482 0.09949 0)
# Probe 659 (0.1888 0.26208 0)
# Probe 660 (0.14937 0.28154 0)
# Probe 661 (0.11418 0.25615 0)
# Probe 662 (0.10952 0.30365 0)
# Probe 663 (0.14254 0.32735 0)
# Probe 664 (0.10596 0.34775 0)
# Probe 665 (0.13936 0.37412 0)
# Probe 666 (0.10321 0.39104 0)
# Probe 667 (0.13416 0.41872 0)
# Probe 668 (0.06775 0.32305 0)
# Probe 669 (0.09239 0.42739 0)
# Probe 670 (0.13055 0.46283 0)
# Probe 671 (0.65132 0.45147 0)
# Probe 672 (0.31346 0.88044 0)
# Probe 673 (0.30606 0.92492 0)
# Probe 674 (0.70958 0.36803 0)
# Probe 675 (0.70688 0.38224 0)
# Probe 676 (0.62264 0.48086 0)
# Probe 677 (0.6359 0.48961 0)
# Probe 678 (0.63952 0.47415 0)
# Probe 679 (0.64872 0.48413 0)
# Probe 680 (0.64675 0.49656 0)
# Probe 681 (0.96084 0.27598 0)
# Probe 682 (0.89811 0.47336 0)
# Probe 683 (0.90953 0.45341 0)
# Probe 684 (0.91532 0.1622 0)
# Probe 685 (0.72136 0.37865 0)
# Probe 686 (0.73426 0.3746 0)
# Probe 687 (0.64889 0.19112 0)
# Probe 688 (0.65753 0.52867 0)
# Probe 689 (0.9288 0.30412 0)
# Probe 690 (0.63859 0.45764 0)
# Probe 691 (0.66469 0.29407 0)
# Probe 692 (0.763 0.65946 0)
# Probe 693 (0.76566 0.64011 0)
# Probe 694 (0.78149 0.63217 0)
# Probe 695 (0.76671 0.6228 0)
# Probe 696 (0.75226 0.63006 0)
# Probe 697 (0.75559 0.61555 0)
# Probe 698 (0.78085 0.61611 0)
# Probe 699 (0.79476 0.62281 0)
# Probe 700 (0.74091 0.61836 0)
# Probe 701 (0.73799 0.63549 0)
# Probe 702 (0.87175 0.40954 0)
# Probe 703 (0.88357 0.42498 0)
# Probe 704 (0.9043 0.41946 0)
# Probe 705 (0.85606 0.40323 0)
# Probe 706 (0.83575 0.38731 0)
# Probe 707 (0.82476 0.62871 0)
# Probe 708 (0.07975 0.73294 0)
# Probe 709 (0.79377 0.37051 0)
# Probe 710 (0.70469 0.88282 0)
# Probe 711 (0.3571 0.64851 0)
# Probe 712 (0.38918 0.66638 0)
# Probe 713 (0.42042 0.65013 0)
# Probe 714 (0.42086 0.68224 0)
# Probe 715 (0.45202 0.66648 0)
# Probe 716 (0.32443 0.62559 0)
# Probe 717 (0.45098 0.6354 0)
# Probe 718 (0.39469 0.70189 0)
# Probe 719 (0.80909 0.75708 0)
# Probe 720 (0.77723 0.77219 0)
# Probe 721 (0.30478 0.8324 0)
# Probe 722 (0.72958 0.95357 0)
# Probe 723 (0.63513 0.64771 0)
# Probe 724 (0.65429 0.63679 0)
# Probe 725 (0.68997 0.59403 0)
# Probe 726 (0.70309 0.58853 0)
# Probe 727 (0.67743 0.58458 0)
# Probe 728 (0.71533 0.60732 0)
# Probe 729 (0.6529 0.46471 0)
# Probe 730 (0.59662 0.62015 0)
# Probe 731 (0.60014 0.5954 0)
# Probe 732 (0.66135 0.32033 0)
# Probe 733 (0.71671 0.27388 0)
# Probe 734 (0.65872 0.51881 0)
# Probe 735 (0.80951 0.72434 0)
# Probe 736 (0.47779 0.65336 0)
# Probe 737 (0.79796 0.64146 0)
# Probe 738 (0.5631 0.70331 0)
# Probe 739 (0.54197 0.68726 0)
# Probe 740 (0.52353 0.35191 0)
# Probe 741 (0.80787 0.90912 0)
# Probe 742 (0.8526 0.91847 0)
# Probe 743 (0.31586 0.66513 0)
# Probe 744 (0.29935 0.59874 0)
# Probe 745 (0.69366 0.38984 0)
# Probe 746 (0.70543 0.39431 0)
# Probe 747 (0.66113 0.48409 0)
# Probe 748 (0.66487 0.46367 0)
# Probe 749 (0.66206 0.49537 0)
# Probe 750 (0.68321 0.42539 0)
# Probe 751 (0.67217 0.44357 0)
# Probe 752 (0.69149 0.67813 0)
# Probe 753 (0.35444 0.91589 0)
# Probe 754 (0.51178 0.69351 0)
# Probe 755 (0.49989 0.20774 0)
# Probe 756 (0.53115 0.2336 0)
# Probe 757 (0.66578 0.43282 0)
# Probe 758 (0.68981 0.56266 0)
# Probe 759 (0.68539 0.57258 0)
# Probe 760 (0.64903 0.50949 0)
# Probe 761 (0.2758 0.22933 0)
# Probe 762 (0.48173 0.49281 0)
# Probe 763 (0.50759 0.48161 0)
# Probe 764 (0.50453 0.50825 0)
# Probe 765 (0.52855 0.49662 0)
# Probe 766 (0.52656 0.52277 0)
# Probe 767 (0.50177 0.53318 0)
# Probe 768 (0.53577 0.47065 0)
# Probe 769 (0.55313 0.49045 0)
# Probe 770 (0.96042 0.17762 0)
# Probe 771 (0.91747 0.11101 0)
# Probe 772 (0.96139 0.38313 0)
# Probe 773 (0.67538 0.54553 0)
# Probe 774 (0.49114 0.24594 0)
# Probe 775 (0.71428 0.58296 0)
# Probe 776 (0.62677 0.42254 0)
# Probe 777 (0.777 0.34511 0)
# Probe 778 (0.6726 0.64951 0)
# Probe 779 (0.73349 0.59204 0)
# Probe 780 (0.73579 0.60278 0)
# Probe 781 (0.74444 0.76351 0)
# Probe 782 (0.30008 0.43989 0)
# Probe 783 (0.33517 0.42426 0)
# Probe 784 (0.3412 0.38533 0)
# Probe 785 (0.37382 0.409 0)
# Probe 786 (0.36502 0.44749 0)
# Probe 787 (0.39114 0.47126 0)
# Probe 788 (0.33012 0.46216 0)
# Probe 789 (0.32678 0.50176 0)
# Probe 790 (0.28876 0.51919 0)
# Probe 791 (0.95842 0.82541 0)
# Probe 792 (0.91498 0.85 0)
# Probe 793 (0.91977 0.8996 0)
# Probe 794 (0.91671 0.80022 0)
# Probe 795 (0.44746 0.72621 0)
# Probe 796 (0.76484 0.38191 0)
# Probe 797 (0.78608 0.38171 0)
# Probe 798 (0.62213 0.52097 0)
# Probe 799 (0.75407 0.38281 0)
# Probe 800 (0.73349 0.38707 0)
# Probe 801 (0.62579 0.44784 0)
# Probe 802 (0.72287 0.6582 0)
# Probe 803 (0.79627 0.59603 0)
# Probe 804 (0.79185 0.60814 0)
# Probe 805 (0.80398 0.605 0)
# Probe 806 (0.04274 0.42403 0)
# Probe 807 (0.58752 0.71902 0)
# Probe 808 (0.61053 0.73257 0)
# Probe 809 (0.61464 0.76348 0)
# Probe 810 (0.8616 0.56933 0)
# Probe 811 (0.87095 0.55954 0)
# Probe 812 (0.75411 0.59703 0)
# Probe 813 (0.77522 0.59825 0)
# Probe 814 (0.17173 0.44582 0)
# Probe 815 (0.68498 0.30676 0)
# Probe 816 (0.70977 0.30004 0)
# Probe 817 (0.84315 0.40843 0)
# Probe 818 (0.82576 0.39603 0)
# Probe 819 (0.37556 0.37527 0)
# Probe 820 (0.31056 0.36043 0)
# Probe 821 (0.62487 0.04755 0)
# Probe 822 (0.57482 0.04068 0)
# Probe 823 (0.72608 0.0392 0)
# Probe 824 (0.77419 0.03889 0)
# Probe 825 (0.80653 0.59225 0)
# Probe 826 (0.8262 0.58349 0)
# Probe 827 (0.62614 0.95884 0)
# Probe 828 (0.57616 0.95852 0)
# Probe 829 (0.54877 0.92217 0)
# Probe 830 (0.60045 0.91634 0)
# Probe 831 (0.51886 0.09135 0)
# Probe 832 (0.4776 0.96054 0)
# Probe 833 (0.42705 0.95563 0)
# Probe 834 (0.83489 0.57729 0)
# Probe 835 (0.71402 0.59436 0)
# Probe 836 (0.32034 0.04277 0)
# Probe 837 (0.84516 0.58158 0)
# Probe 838 (0.8503 0.41722 0)
# Probe 839 (0.50071 0.80059 0)
# Probe 840 (0.32107 0.20743 0)
# Probe 841 (0.27448 0.04154 0)
# Probe 842 (0.87328 0.68976 0)
# Probe 843 (0.89843 0.67206 0)
# Probe 844 (0.04269 0.52481 0)
# Probe 845 (0.08346 0.50136 0)
# Probe 846 (0.08398 0.54718 0)
# Probe 847 (0.11974 0.52645 0)
# Probe 848 (0.12045 0.56813 0)
# Probe 849 (0.08389 0.5933 0)
# Probe 850 (0.13042 0.61403 0)
# Probe 851 (0.80656 0.38762 0)
# Probe 852 (0.63759 0.32767 0)
# Probe 853 (0.86405 0.54661 0)
# Probe 854 (0.85039 0.56406 0)
# Probe 855 (0.81526 0.60186 0)
# Probe 856 (0.87749 0.04451 0)
# Probe 857 (0.87204 0.45349 0)
# Probe 858 (0.88136 0.44404 0)
# Probe 859 (0.86339 0.434 0)
# Probe 860 (0.67262 0.55782 0)
# Probe 861 (0.04217 0.57274 0)
# Probe 862 (0.47834 0.52124 0)
# Probe 863 (0.61236 0.17411 0)
# Probe 864 (0.51106 0.45443 0)
# Probe 865 (0.55337 0.45802 0)
# Probe 866 (0.04187 0.17499 0)
# Probe 867 (0.0864 0.20524 0)
# Probe 868 (0.1758 0.04822 0)
# Probe 869 (0.87747 0.47406 0)
# Probe 870 (0.0413 0.27997 0)
# Probe 871 (0.1775 0.94916 0)
# Probe 872 (0.04156 0.82563 0)
# Probe 873 (0.0798 0.84291 0)
# Probe 874 (0.09671 0.89888 0)
# Probe 875 (0.04236 0.9242 0)
# Probe 876 (0.42093 0.61532 0)
# Probe 877 (0.89289 0.51003 0)
# Probe 878 (0.04217 0.07523 0)
# Probe 879 (0.87886 0.4952 0)
# Probe 880 (0.8759 0.5475 0)
# Probe 881 (0.16747 0.64651 0)
# Probe 882 (0.3855 0.32242 0)
# Probe 883 (0.23043 0.78647 0)
# Probe 884 (0.87896 0.5052 0)
# Probe 885 (0.87268 0.52655 0)
# Probe 886 (0.6501 0.9208 0)
# Probe 887 (0.76907 0.60894 0)
# Probe 888 (0.56744 0.21694 0)
# Probe 889 (0.3973 0.17474 0)
# Probe 890 (0.87487 0.8786 0)
# Probe 891 (0.5587 0.84971 0)
# Probe 892 (0.53408 0.81932 0)
# Probe 893 (0.20285 0.67375 0)
# Probe 894 (0.1823 0.89751 0)
# Probe 895 (0.66478 0.77615 0)
# Probe 896 (0.57919 0.14391 0)
# Probe 897 (0.59898 0.20476 0)
# Probe 898 (0.50197 0.91944 0)
# Probe 899 (0.80259 0.08034 0)
# Probe 900 (0.09068 0.09141 0)
# Probe 901 (0.89613 0.6406 0)
# Probe 902 (0.53133 0.7808 0)
# Probe 903 (0.92868 0.33993 0)
# Probe 904 (0.21021 0.13016 0)
# Probe 905 (0.11738 0.75488 0)
# Probe 906 (0.20361 0.37401 0)
# Probe 907 (0.76584 0.74368 0)
# Probe 908 (0.5685 0.67685 0)
# Probe 909 (0.4731 0.03957 0)
# Probe 910 (0.56115 0.59664 0)
# Probe 911 (0.54853 0.50881 0)
# Probe 912 (0.25208 0.11404 0)
# Probe 913 (0.69982 0.31968 0)
# Probe 914 (0.26792 0.76454 0)
# Probe 915 (0.18711 0.5279 0)
# Probe 916 (0.26682 0.81038 0)
# Probe 917 (0.48238 0.68047 0)
# Probe 918 (0.50621 0.66058 0)
# Probe 919 (0.33415 0.59141 0)
# Probe 920 (0.08584 0.63913 0)
# Probe 921 (0.72215 0.63866 0)
# Probe 922 (0.44622 0.32768 0)
# Probe 923 (0.33701 0.80944 0)
# Probe 924 (0.81095 0.6171 0)
# Probe 925 (0.3942 0.21292 0)
# Probe 926 (0.55707 0.42532 0)
# Probe 927 (0.41933 0.04664 0)
# Probe 928 (0.92565 0.68788 0)
# Probe 929 (0.42952 0.91194 0)
# Probe 930 (0.75042 0.29399 0)
# Probe 931 (0.63458 0.78709 0)
# Probe 932 (0.60398 0.56213 0)
# Probe 933 (0.61745 0.31236 0)
# Probe 934 (0.72782 0.61308 0)
# Probe 935 (0.87677 0.95857 0)
# Probe 936 (0.42108 0.58018 0)
# Probe 937 (0.48188 0.10583 0)
# Probe 938 (0.85479 0.25021 0)
# Probe 939 (0.87918 0.26991 0)
# Probe 940 (0.9542 0.0775 0)
# Probe 941 (0.96037 0.92334 0)
# Probe 942 (0.61697 0.61417 0)
# Probe 943 (0.0746 0.9569 0)
# Probe 944 (0.07461 0.04142 0)
# Probe 945 (0.67343 0.67069 0)
# Probe 946 (0.66033 0.39107 0)
# Probe 947 (0.4079 0.40508 0)
# Probe 948 (0.40385 0.81289 0)
# Probe 949 (0.79106 0.19654 0)
# Probe 950 (0.54422 0.26562 0)
# Probe 951 (0.51356 0.63581 0)
# Probe 952 (0.47087 0.61059 0)
# Probe 953 (0.59657 0.23866 0)
# Probe 954 (0.51369 0.27205 0)
# Probe 955 (0.67025 0.74815 0)
# Probe 956 (0.64986 0.22113 0)
# Probe 957 (0.69685 0.92241 0)
# Probe 958 (0.61076 0.70574 0)
# Probe 959 (0.63164 0.7193 0)
# Probe 960 (0.6342 0.59334 0)
# Probe 961 (0.40169 0.50109 0)
# Probe 962 (0.35667 0.47844 0)
# Probe 963 (0.74721 0.37193 0)
# Probe 964 (0.80449 0.37631 0)
# Probe 965 (0.71208 0.12833 0)
# Probe 966 (0.72408 0.67833 0)
# Probe 967 (0.80151 0.24482 0)
# Probe 968 (0.57351 0.4859 0)
# Probe 969 (0.7044 0.57757 0)
# Probe 970 (0.73914 0.73738 0)
# Probe 971 (0.66796 0.52651 0)