# Probe 0 (0 0 0)
# Probe 1 (1 0 0)
# Probe 2 (1 1 0)
# Probe 3 (0 1 0)
# Probe 4 (0.59 0.36 0)
# Probe 5 (0.49 0.26 0)
# Probe 6 (0.39 0.36 0)
# Probe 7 (0.49 0.46 0)
# Probe 8 (0.05 0 0)
# Probe 9 (0.1 0 0)
# Probe 10 (0.15 0 0)
# Probe 11 (0.2 0 0)
# Probe 12 (0.25 0 0)
# Probe 13 (0.3 0 0)
# Probe 14 (0.35 0 0)
# Probe 15 (0.4 0 0)
# Probe 16 (0.45 0 0)
# Probe 17 (0.5 0 0)
# Probe 18 (0.55 0 0)
# Probe 19 (0.6 0 0)
# Probe 20 (0.65 0 0)
# Probe 21 (0.7 0 0)
# Probe 22 (0.75 0 0)
# Probe 23 (0.8 0 0)
# Probe 24 (0.85 0 0)
# Probe 25 (0.9 0 0)
# Probe 26 (0.95 0 0)
# Probe 27 (1 0.05 0)
# Probe 28 (1 0.1 0)
# Probe 29 (1 0.15 0)
# Probe 30 (1 0.2 0)
# Probe 31 (1 0.25 0)
# Probe 32 (1 0.3 0)
# Probe 33 (1 0.35 0)
# Probe 34 (1 0.4 0)
# Probe 35 (1 0.45 0)
# Probe 36 (1 0.5 0)
# Probe 37 (1 0.55 0)
# Probe 38 (1 0.6 0)
# Probe 39 (1 0.65 0)
# Probe 40 (1 0.7 0)
# Probe 41 (1 0.75 0)
# Probe 42 (1 0.8 0)
# Probe 43 (1 0.85 0)
# Probe 44 (1 0.9 0)
# Probe 45 (1 0.95 0)
# Probe 46 (0.95 1 0)
# Probe 47 (0.9 1 0)
# Probe 48 (0.85 1 0)
# Probe 49 (0.8 1 0)
# Probe 50 (0.75 1 0)
# Probe 51 (0.7 1 0)
# Probe 52 (0.65 1 0)
# Probe 53 (0.6 1 0)
# Probe 54 (0.55 1 0)
# Probe 55 (0.5 1 0)
# Probe 56 (0.45 1 0)
# Probe 57 (0.4 1 0)
# Probe 58 (0.35 1 0)
# Probe 59 (0.3 1 0)
# Probe 60 (0.25 1 0)
# Probe 61 (0.2 1 0)
# Probe 62 (0.15 1 0)
# Probe 63 (0.1 1 0)
# Probe 64 (0.05 1 0)
# Probe 65 (0 0.95 0)
# Probe 66 (0 0.9 0)
# Probe 67 (0 0.85 0)
# Probe 68 (0 0.8 0)
# Probe 69 (0 0.75 0)
# Probe 70 (0 0.7 0)
# Probe 71 (0 0.65 0)
# Probe 72 (0 0.6 0)
# Probe 73 (0 0.55 0)
# Probe 74 (0 0.5 0)
# Probe 75 (0 0.45 0)
# Probe 76 (0 0.4 0)
# Probe 77 (0 0.35 0)
# Probe 78 (0 0.3 0)
# Probe 79 (0 0.25 0)
# Probe 80 (0 0.2 0)
# Probe 81 (0 0.15 0)
# Probe 82 (0 0.1 0)
# Probe 83 (0 0.05 0)
# Probe 84 (0.58952 0.3502 0)
# Probe 85 (0.58808 0.34049 0)
# Probe 86 (0.58569 0.33097 0)
# Probe 87 (0.58239 0.32173 0)
# Probe 88 (0.57819 0.31286 0)
# Probe 89 (0.57315 0.30444 0)
# Probe 90 (0.5673 0.29656 0)
# Probe 91 (0.56071 0.28929 0)
# Probe 92 (0.55344 0.2827 0)
# Probe 93 (0.54556 0.27685 0)
# Probe 94 (0.53714 0.27181 0)
# Probe 95 (0.52827 0.26761 0)
# Probe 96 (0.51903 0.26431 0)
# Probe 97 (0.50951 0.26192 0)
# Probe 98 (0.4998 0.26048 0)
# Probe 99 (0.4802 0.26048 0)
# Probe 100 (0.47049 0.26192 0)
# Probe 101 (0.46097 0.26431 0)
# Probe 102 (0.45173 0.26761 0)
# Probe 103 (0.44286 0.27181 0)
# Probe 104 (0.43444 0.27685 0)
# Probe 105 (0.42656 0.2827 0)
# Probe 106 (0.41929 0.28929 0)
# Probe 107 (0.4127 0.29656 0)
# Probe 108 (0.40685 0.30444 0)
# Probe 109 (0.40181 0.31286 0)
# Probe 110 (0.39761 0.32173 0)
# Probe 111 (0.39431 0.33097 0)
# Probe 112 (0.39192 0.34049 0)
# Probe 113 (0.39048 0.3502 0)
# Probe 114 (0.39048 0.3698 0)
# Probe 115 (0.39192 0.37951 0)
# Probe 116 (0.39431 0.38903 0)
# Probe 117 (0.39761 0.39827 0)
# Probe 118 (0.40181 0.40714 0)
# Probe 119 (0.40685 0.41556 0)
# Probe 120 (0.4127 0.42344 0)
# Probe 121 (0.41929 0.43071 0)
# Probe 122 (0.42656 0.4373 0)
# Probe 123 (0.43444 0.44315 0)
# Probe 124 (0.44286 0.44819 0)
# Probe 125 (0.45173 0.45239 0)
# Probe 126 (0.46097 0.45569 0)
# Probe 127 (0.47049 0.45808 0)
# Probe 128 (0.4802 0.45952 0)
# Probe 129 (0.4998 0.45952 0)
# Probe 130 (0.50951 0.45808 0)
# Probe 131 (0.51903 0.45569 0)
# Probe 132 (0.52827 0.45239 0)
# Probe 133 (0.53714 0.44819 0)
# Probe 134 (0.54556 0.44315 0)
# Probe 135 (0.55344 0.4373 0)
# Probe 136 (0.56071 0.43071 0)
# Probe 137 (0.5673 0.42344 0)
# Probe 138 (0.57315 0.41556 0)
# Probe 139 (0.57819 0.40714 0)
# Probe 140 (0.58239 0.39827 0)
# Probe 141 (0.58569 0.38903 0)
# Probe 142 (0.58808 0.37951 0)
# Probe 143 (0.58952 0.3698 0)
# Probe 144 (0.67985 0.95822 0)
# Probe 145 (0.32487 0.95507 0)
# Probe 146 (0.04242 0.67623 0)
# Probe 147 (0.5264 0.96589 0)
# Probe 148 (0.95629 0.62219 0)
# Probe 149 (0.96023 0.22615 0)
# Probe 150 (0.04161 0.52718 0)
# Probe 151 (0.95752 0.47337 0)
# Probe 152 (0.04488 0.21931 0)
# Probe 153 (0.03931 0.37576 0)
# Probe 154 (0.7252 0.04752 0)
# Probe 155 (0.27631 0.03922 0)
# Probe 156 (0.95681 0.77476 0)
# Probe 157 (0.575 0.0433 0)
# Probe 158 (0.42311 0.04174 0)
# Probe 159 (0.48468 0.25175 0)
# Probe 160 (0.5059 0.25279 0)
# Probe 161 (0.0423 0.82657 0)
# Probe 162 (0.83017 0.95447 0)
# Probe 163 (0.17533 0.95863 0)
# Probe 164 (0.17722 0.04306 0)
# Probe 165 (0.82494 0.04213 0)
# Probe 166 (0.95794 0.37512 0)
# Probe 167 (0.42378 0.95975 0)
# Probe 168 (0.04035 0.1315 0)
# Probe 169 (0.95996 0.12522 0)
# Probe 170 (0.95702 0.87449 0)
# Probe 171 (0.04477 0.92111 0)
# Probe 172 (0.076 0.0401 0)
# Probe 173 (0.92423 0.051 0)
# Probe 174 (0.92059 0.95444 0)
# Probe 175 (0.96034 0.42497 0)
# Probe 176 (0.9216 0.45058 0)
# Probe 177 (0.91759 0.49349 0)
# Probe 178 (0.88311 0.47329 0)
# Probe 179 (0.88057 0.51193 0)
# Probe 180 (0.84679 0.49157 0)
# Probe 181 (0.84767 0.45386 0)
# Probe 182 (0.84633 0.52879 0)
# Probe 183 (0.81498 0.51124 0)
# Probe 184 (0.81439 0.54537 0)
# Probe 185 (0.78505 0.52809 0)
# Probe 186 (0.78434 0.56094 0)
# Probe 187 (0.75734 0.54553 0)
# Probe 188 (0.75523 0.57602 0)
# Probe 189 (0.72876 0.56008 0)
# Probe 190 (0.57649 0.42466 0)
# Probe 191 (0.72766 0.59035 0)
# Probe 192 (0.70276 0.57607 0)
# Probe 193 (0.70072 0.60428 0)
# Probe 194 (0.67614 0.58891 0)
# Probe 195 (0.55456 0.44705 0)
# Probe 196 (0.67502 0.61788 0)
# Probe 197 (0.65114 0.60231 0)
# Probe 198 (0.64951 0.63136 0)
# Probe 199 (0.62568 0.61606 0)
# Probe 200 (0.52651 0.46204 0)
# Probe 201 (0.75697 0.51148 0)
# Probe 202 (0.67675 0.6504 0)
# Probe 203 (0.62534 0.64636 0)
# Probe 204 (0.60212 0.63024 0)
# Probe 205 (0.60063 0.66036 0)
# Probe 206 (0.57535 0.63898 0)
# Probe 207 (0.57467 0.67095 0)
# Probe 208 (0.5487 0.65552 0)
# Probe 209 (0.60061 0.69225 0)
# Probe 210 (0.54883 0.69089 0)
# Probe 211 (0.52326 0.671 0)
# Probe 212 (0.52403 0.64083 0)
# Probe 213 (0.49771 0.65416 0)
# Probe 214 (0.48448 0.46798 0)
# Probe 215 (0.49656 0.68452 0)
# Probe 216 (0.47144 0.66748 0)
# Probe 217 (0.47282 0.63776 0)
# Probe 218 (0.4469 0.65063 0)
# Probe 219 (0.44959 0.62194 0)
# Probe 220 (0.42322 0.63399 0)
# Probe 221 (0.45316 0.46218 0)
# Probe 222 (0.42022 0.66377 0)
# Probe 223 (0.39585 0.64619 0)
# Probe 224 (0.39983 0.61704 0)
# Probe 225 (0.37197 0.62885 0)
# Probe 226 (0.37557 0.59997 0)
# Probe 227 (0.42544 0.44705 0)
# Probe 228 (0.34831 0.61165 0)
# Probe 229 (0.35191 0.58294 0)
# Probe 230 (0.34445 0.64124 0)
# Probe 231 (0.3245 0.59487 0)
# Probe 232 (0.32724 0.56527 0)
# Probe 233 (0.68165 0.55778 0)
# Probe 234 (0.60343 0.60176 0)
# Probe 235 (0.29989 0.57814 0)
# Probe 236 (0.30304 0.54764 0)
# Probe 237 (0.40331 0.42487 0)
# Probe 238 (0.75179 0.60287 0)
# Probe 239 (0.27544 0.56003 0)
# Probe 240 (0.27886 0.53 0)
# Probe 241 (0.27168 0.59195 0)
# Probe 242 (0.58785 0.40607 0)
# Probe 243 (0.50565 0.46739 0)
# Probe 244 (0.37818 0.57189 0)
# Probe 245 (0.30362 0.51676 0)
# Probe 246 (0.28204 0.50072 0)
# Probe 247 (0.25575 0.51196 0)
# Probe 248 (0.25995 0.48317 0)
# Probe 249 (0.38773 0.39613 0)
# Probe 250 (0.28871 0.46942 0)
# Probe 251 (0.26483 0.45383 0)
# Probe 252 (0.23757 0.46487 0)
# Probe 253 (0.24322 0.43651 0)
# Probe 254 (0.2691 0.42669 0)
# Probe 255 (0.2489 0.40925 0)
# Probe 256 (0.38126 0.36756 0)
# Probe 257 (0.27791 0.40095 0)
# Probe 258 (0.25536 0.3839 0)
# Probe 259 (0.27892 0.37561 0)
# Probe 260 (0.2604 0.3594 0)
# Probe 261 (0.38468 0.3334 0)
# Probe 262 (0.28318 0.3512 0)
# Probe 263 (0.26478 0.33529 0)
# Probe 264 (0.28794 0.32714 0)
# Probe 265 (0.2697 0.3114 0)
# Probe 266 (0.41696 0.27832 0)
# Probe 267 (0.29311 0.30292 0)
# Probe 268 (0.2731 0.28823 0)
# Probe 269 (0.39556 0.30307 0)
# Probe 270 (0.29803 0.2783 0)
# Probe 271 (0.24508 0.31913 0)
# Probe 272 (0.27682 0.26179 0)
# Probe 273 (0.30428 0.25142 0)
# Probe 274 (0.43428 0.26704 0)
# Probe 275 (0.45291 0.25701 0)
# Probe 276 (0.28313 0.2324 0)
# Probe 277 (0.31054 0.22337 0)
# Probe 278 (0.25367 0.2441 0)
# Probe 279 (0.22926 0.38935 0)
# Probe 280 (0.29344 0.41995 0)
# Probe 281 (0.26031 0.21162 0)
# Probe 282 (0.2293 0.22319 0)
# Probe 283 (0.4747 0.60996 0)
# Probe 284 (0.21489 0.44604 0)
# Probe 285 (0.29903 0.36595 0)
# Probe 286 (0.46949 0.69858 0)
# Probe 287 (0.24535 0.57262 0)
# Probe 288 (0.24177 0.60632 0)
# Probe 289 (0.20781 0.58028 0)
# Probe 290 (0.20887 0.62009 0)
# Probe 291 (0.23911 0.64154 0)
# Probe 292 (0.20659 0.65706 0)
# Probe 293 (0.23755 0.67878 0)
# Probe 294 (0.20279 0.69507 0)
# Probe 295 (0.23525 0.71743 0)
# Probe 296 (0.19894 0.73439 0)
# Probe 297 (0.23206 0.75702 0)
# Probe 298 (0.26843 0.73966 0)
# Probe 299 (0.26559 0.77958 0)
# Probe 300 (0.30112 0.76268 0)
# Probe 301 (0.32881 0.24403 0)
# Probe 302 (0.3405 0.21849 0)
# Probe 303 (0.49707 0.71509 0)
# Probe 304 (0.46722 0.73114 0)
# Probe 305 (0.49673 0.74853 0)
# Probe 306 (0.46485 0.76493 0)
# Probe 307 (0.49425 0.78458 0)
# Probe 308 (0.81138 0.57785 0)
# Probe 309 (0.31704 0.19484 0)
# Probe 310 (0.34557 0.18677 0)
# Probe 311 (0.36737 0.20672 0)
# Probe 312 (0.37365 0.1797 0)
# Probe 313 (0.39278 0.19911 0)
# Probe 314 (0.40006 0.17312 0)
# Probe 315 (0.42151 0.19382 0)
# Probe 316 (0.42602 0.16693 0)
# Probe 317 (0.44575 0.18408 0)
# Probe 318 (0.45071 0.1602 0)
# Probe 319 (0.46862 0.17793 0)
# Probe 320 (0.47558 0.15305 0)
# Probe 321 (0.49416 0.17333 0)
# Probe 322 (0.31718 0.29738 0)
# Probe 323 (0.19496 0.7753 0)
# Probe 324 (0.18267 0.60087 0)
# Probe 325 (0.46341 0.79838 0)
# Probe 326 (0.35046 0.15692 0)
# Probe 327 (0.23585 0.18902 0)
# Probe 328 (0.20283 0.20041 0)
# Probe 329 (0.1969 0.23605 0)
# Probe 330 (0.20881 0.47694 0)
# Probe 331 (0.18356 0.45516 0)
# Probe 332 (0.5271 0.76694 0)
# Probe 333 (0.52474 0.80423 0)
# Probe 334 (0.55818 0.78617 0)
# Probe 335 (0.55633 0.82436 0)
# Probe 336 (0.59067 0.80575 0)
# Probe 337 (0.50119 0.14615 0)
# Probe 338 (0.51948 0.16543 0)
# Probe 339 (0.53675 0.26064 0)
# Probe 340 (0.29898 0.80209 0)
# Probe 341 (0.45262 0.59491 0)
# Probe 342 (0.47554 0.58438 0)
# Probe 343 (0.45564 0.57083 0)
# Probe 344 (0.47559 0.56062 0)
# Probe 345 (0.45793 0.54911 0)
# Probe 346 (0.49424 0.57251 0)
# Probe 347 (0.49522 0.55146 0)
# Probe 348 (0.51205 0.5617 0)
# Probe 349 (0.5134 0.54282 0)
# Probe 350 (0.52977 0.55255 0)
# Probe 351 (0.53085 0.53409 0)
# Probe 352 (0.54665 0.5432 0)
# Probe 353 (0.54713 0.52487 0)
# Probe 354 (0.56296 0.53439 0)
# Probe 355 (0.5634 0.51616 0)
# Probe 356 (0.57906 0.5255 0)
# Probe 357 (0.57955 0.50755 0)
# Probe 358 (0.59524 0.51677 0)
# Probe 359 (0.59568 0.49882 0)
# Probe 360 (0.61151 0.50826 0)
# Probe 361 (0.61198 0.48998 0)
# Probe 362 (0.62786 0.4994 0)
# Probe 363 (0.62843 0.4809 0)
# Probe 364 (0.64495 0.49069 0)
# Probe 365 (0.6451 0.47167 0)
# Probe 366 (0.62918 0.46232 0)
# Probe 367 (0.64535 0.45307 0)
# Probe 368 (0.66177 0.46244 0)
# Probe 369 (0.66168 0.4432 0)
# Probe 370 (0.67891 0.45264 0)
# Probe 371 (0.6784 0.43276 0)
# Probe 372 (0.59718 0.37612 0)
# Probe 373 (0.65862 0.42377 0)
# Probe 374 (0.67752 0.41292 0)
# Probe 375 (0.69557 0.42203 0)
# Probe 376 (0.69486 0.40135 0)
# Probe 377 (0.67663 0.39273 0)
# Probe 378 (0.69341 0.37992 0)
# Probe 379 (0.58479 0.30411 0)
# Probe 380 (0.59482 0.334 0)
# Probe 381 (0.59721 0.35473 0)
# Probe 382 (0.5703 0.28722 0)
# Probe 383 (0.71307 0.38947 0)
# Probe 384 (0.71149 0.3665 0)
# Probe 385 (0.69018 0.35772 0)
# Probe 386 (0.70788 0.34229 0)
# Probe 387 (0.73115 0.35221 0)
# Probe 388 (0.72935 0.32697 0)
# Probe 389 (0.7034 0.31709 0)
# Probe 390 (0.72339 0.30051 0)
# Probe 391 (0.69894 0.29165 0)
# Probe 392 (0.72035 0.27553 0)
# Probe 393 (0.69247 0.26326 0)
# Probe 394 (0.7521 0.31252 0)
# Probe 395 (0.55484 0.27273 0)
# Probe 396 (0.71654 0.24618 0)
# Probe 397 (0.68701 0.23236 0)
# Probe 398 (0.7103 0.21381 0)
# Probe 399 (0.68015 0.20321 0)
# Probe 400 (0.74217 0.22769 0)
# Probe 401 (0.65794 0.22139 0)
# Probe 402 (0.65136 0.19356 0)
# Probe 403 (0.62953 0.21162 0)
# Probe 404 (0.67668 0.31126 0)
# Probe 405 (0.62253 0.18351 0)
# Probe 406 (0.60014 0.20454 0)
# Probe 407 (0.49812 0.53409 0)
# Probe 408 (0.73643 0.1936 0)
# Probe 409 (0.76882 0.20555 0)
# Probe 410 (0.67941 0.47261 0)
# Probe 411 (0.63777 0.23834 0)
# Probe 412 (0.69769 0.46249 0)
# Probe 413 (0.6455 0.16318 0)
# Probe 414 (0.62986 0.44449 0)
# Probe 415 (0.59704 0.48265 0)
# Probe 416 (0.61115 0.52706 0)
# Probe 417 (0.43698 0.74478 0)
# Probe 418 (0.3923 0.67701 0)
# Probe 419 (0.52995 0.51529 0)
# Probe 420 (0.56362 0.49903 0)
# Probe 421 (0.26331 0.82038 0)
# Probe 422 (0.17771 0.48998 0)
# Probe 423 (0.15061 0.4671 0)
# Probe 424 (0.1574 0.43132 0)
# Probe 425 (0.76246 0.1689 0)
# Probe 426 (0.79702 0.18093 0)
# Probe 427 (0.80289 0.21929 0)
# Probe 428 (0.16056 0.75118 0)
# Probe 429 (0.58886 0.84516 0)
# Probe 430 (0.62315 0.82655 0)
# Probe 431 (0.62379 0.78739 0)
# Probe 432 (0.65708 0.80763 0)
# Probe 433 (0.65711 0.76927 0)
# Probe 434 (0.69072 0.78873 0)
# Probe 435 (0.69082 0.82853 0)
# Probe 436 (0.72599 0.80864 0)
# Probe 437 (0.72589 0.76761 0)
# Probe 438 (0.76156 0.78808 0)
# Probe 439 (0.7617 0.74624 0)
# Probe 440 (0.79731 0.76714 0)
# Probe 441 (0.79741 0.7248 0)
# Probe 442 (0.79613 0.81191 0)
# Probe 443 (0.6146 0.15312 0)
# Probe 444 (0.63919 0.1315 0)
# Probe 445 (0.51264 0.19025 0)
# Probe 446 (0.38824 0.22642 0)
# Probe 447 (0.72613 0.85021 0)
# Probe 448 (0.52773 0.57133 0)
# Probe 449 (0.83227 0.19472 0)
# Probe 450 (0.83802 0.23261 0)
# Probe 451 (0.40762 0.14379 0)
# Probe 452 (0.52753 0.13888 0)
# Probe 453 (0.16884 0.21281 0)
# Probe 454 (0.16312 0.24928 0)
# Probe 455 (0.17468 0.17536 0)
# Probe 456 (0.50717 0.11737 0)
# Probe 457 (0.17395 0.67394 0)
# Probe 458 (0.4624 0.19752 0)
# Probe 459 (0.5223 0.84236 0)
# Probe 460 (0.33453 0.78512 0)
# Probe 461 (0.33249 0.8246 0)
# Probe 462 (0.15618 0.79391 0)
# Probe 463 (0.69808 0.48446 0)
# Probe 464 (0.144 0.50317 0)
# Probe 465 (0.83365 0.74607 0)
# Probe 466 (0.83364 0.70307 0)
# Probe 467 (0.43853 0.5575 0)
# Probe 468 (0.44117 0.53709 0)
# Probe 469 (0.5632 0.5529 0)
# Probe 470 (0.76227 0.70422 0)
# Probe 471 (0.12212 0.44344 0)
# Probe 472 (0.67155 0.14165 0)
# Probe 473 (0.12821 0.40735 0)
# Probe 474 (0.45667 0.13366 0)
# Probe 475 (0.53638 0.18367 0)
# Probe 476 (0.52858 0.20537 0)
# Probe 477 (0.50976 0.21207 0)
# Probe 478 (0.87619 0.55071 0)
# Probe 479 (0.82723 0.15506 0)
# Probe 480 (0.64447 0.51047 0)
# Probe 481 (0.61489 0.45284 0)
# Probe 482 (0.61569 0.4361 0)
# Probe 483 (0.60108 0.44159 0)
# Probe 484 (0.45916 0.52938 0)
# Probe 485 (0.44435 0.51609 0)
# Probe 486 (0.42647 0.52499 0)
# Probe 487 (0.42863 0.50731 0)
# Probe 488 (0.41214 0.51419 0)
# Probe 489 (0.41456 0.49695 0)
# Probe 490 (0.3981 0.50348 0)
# Probe 491 (0.40195 0.48412 0)
# Probe 492 (0.38434 0.49238 0)
# Probe 493 (0.38659 0.47503 0)
# Probe 494 (0.37006 0.48178 0)
# Probe 495 (0.37248 0.46431 0)
# Probe 496 (0.46111 0.51142 0)
# Probe 497 (0.36732 0.49997 0)
# Probe 498 (0.35577 0.47082 0)
# Probe 499 (0.35999 0.45075 0)
# Probe 500 (0.43038 0.49041 0)
# Probe 501 (0.34149 0.45944 0)
# Probe 502 (0.34411 0.44087 0)
# Probe 503 (0.35998 0.43284 0)
# Probe 504 (0.34659 0.42331 0)
# Probe 505 (0.3887 0.45896 0)
# Probe 506 (0.13765 0.1887 0)
# Probe 507 (0.14466 0.15013 0)
# Probe 508 (0.30136 0.72208 0)
# Probe 509 (0.39668 0.52171 0)
# Probe 510 (0.71756 0.47321 0)
# Probe 511 (0.62174 0.86669 0)
# Probe 512 (0.18418 0.13728 0)
# Probe 513 (0.36851 0.80662 0)
# Probe 514 (0.36674 0.84729 0)
# Probe 515 (0.80815 0.25687 0)
# Probe 516 (0.84247 0.27101 0)
# Probe 517 (0.3627 0.41852 0)
# Probe 518 (0.35207 0.40674 0)
# Probe 519 (0.52156 0.22658 0)
# Probe 520 (0.54114 0.2205 0)
# Probe 521 (0.87226 0.7252 0)
# Probe 522 (0.86917 0.68416 0)
# Probe 523 (0.86513 0.16999 0)
# Probe 524 (0.85956 0.1274 0)
# Probe 525 (0.12028 0.76842 0)
# Probe 526 (0.32436 0.44852 0)
# Probe 527 (0.66211 0.1091 0)
# Probe 528 (0.69968 0.11852 0)
# Probe 529 (0.2705 0.66177 0)
# Probe 530 (0.62932 0.42897 0)
# Probe 531 (0.61607 0.42094 0)
# Probe 532 (0.63095 0.41365 0)
# Probe 533 (0.61662 0.40615 0)
# Probe 534 (0.62861 0.3985 0)
# Probe 535 (0.19208 0.27113 0)
# Probe 536 (0.1583 0.28583 0)
# Probe 537 (0.12581 0.26595 0)
# Probe 538 (0.12268 0.30285 0)
# Probe 539 (0.15529 0.32292 0)
# Probe 540 (0.87365 0.77249 0)
# Probe 541 (0.80728 0.29524 0)
# Probe 542 (0.84631 0.30826 0)
# Probe 543 (0.81764 0.33069 0)
# Probe 544 (0.85168 0.34464 0)
# Probe 545 (0.8227 0.36603 0)
# Probe 546 (0.87869 0.28466 0)
# Probe 547 (0.85589 0.38057 0)
# Probe 548 (0.60639 0.12082 0)
# Probe 549 (0.32938 0.86587 0)
# Probe 550 (0.34003 0.47826 0)
# Probe 551 (0.83342 0.66126 0)
# Probe 552 (0.87281 0.64303 0)
# Probe 553 (0.58613 0.88599 0)
# Probe 554 (0.37427 0.42619 0)
# Probe 555 (0.16374 0.39367 0)
# Probe 556 (0.56207 0.74873 0)
# Probe 557 (0.33364 0.41262 0)
# Probe 558 (0.33767 0.39581 0)
# Probe 559 (0.35283 0.39017 0)
# Probe 560 (0.34092 0.37961 0)
# Probe 561 (0.35533 0.3747 0)
# Probe 562 (0.34383 0.36407 0)
# Probe 563 (0.36025 0.35992 0)
# Probe 564 (0.34711 0.34912 0)
# Probe 565 (0.53849 0.11044 0)
# Probe 566 (0.51567 0.08453 0)
# Probe 567 (0.364 0.88804 0)
# Probe 568 (0.40241 0.86984 0)
# Probe 569 (0.61641 0.39109 0)
# Probe 570 (0.62829 0.38368 0)
# Probe 571 (0.21995 0.5485 0)
# Probe 572 (0.36307 0.34391 0)
# Probe 573 (0.35009 0.33398 0)
# Probe 574 (0.33753 0.33888 0)
# Probe 575 (0.64286 0.39186 0)
# Probe 576 (0.64134 0.37618 0)
# Probe 577 (0.62753 0.36876 0)
# Probe 578 (0.64053 0.36054 0)
# Probe 579 (0.62399 0.35304 0)
# Probe 580 (0.63952 0.34471 0)
# Probe 581 (0.6251 0.33682 0)
# Probe 582 (0.63919 0.32851 0)
# Probe 583 (0.62458 0.32072 0)
# Probe 584 (0.63855 0.31191 0)
# Probe 585 (0.62354 0.30388 0)
# Probe 586 (0.63847 0.29429 0)
# Probe 587 (0.62142 0.28759 0)
# Probe 588 (0.65378 0.33728 0)
# Probe 589 (0.60922 0.31488 0)
# Probe 590 (0.12681 0.72739 0)
# Probe 591 (0.62587 0.74965 0)
# Probe 592 (0.65732 0.73223 0)
# Probe 593 (0.91112 0.70346 0)
# Probe 594 (0.19236 0.81857 0)
# Probe 595 (0.15211 0.83827 0)
# Probe 596 (0.18806 0.86217 0)
# Probe 597 (0.36626 0.38417 0)
# Probe 598 (0.79059 0.35283 0)
# Probe 599 (0.79421 0.38765 0)
# Probe 600 (0.11733 0.34425 0)
# Probe 601 (0.08108 0.3141 0)
# Probe 602 (0.3692 0.76336 0)
# Probe 603 (0.69005 0.87002 0)
# Probe 604 (0.72558 0.89321 0)
# Probe 605 (0.7623 0.87207 0)
# Probe 606 (0.65642 0.36633 0)
# Probe 607 (0.14567 0.88588 0)
# Probe 608 (0.2671 0.17956 0)
# Probe 609 (0.24306 0.15449 0)
# Probe 610 (0.27625 0.14429 0)
# Probe 611 (0.25104 0.11808 0)
# Probe 612 (0.36436 0.32914 0)
# Probe 613 (0.35275 0.31899 0)
# Probe 614 (0.36912 0.31485 0)
# Probe 615 (0.35596 0.30389 0)
# Probe 616 (0.37067 0.2989 0)
# Probe 617 (0.35852 0.28798 0)
# Probe 618 (0.37428 0.28279 0)
# Probe 619 (0.36138 0.27114 0)
# Probe 620 (0.37795 0.26586 0)
# Probe 621 (0.39082 0.27756 0)
# Probe 622 (0.3927 0.26012 0)
# Probe 623 (0.36414 0.25311 0)
# Probe 624 (0.71691 0.45079 0)
# Probe 625 (0.73818 0.46242 0)
# Probe 626 (0.73798 0.43655 0)
# Probe 627 (0.76147 0.44966 0)
# Probe 628 (0.6619 0.50121 0)
# Probe 629 (0.08345 0.74347 0)
# Probe 630 (0.50449 0.22853 0)
# Probe 631 (0.49221 0.21847 0)
# Probe 632 (0.88103 0.35891 0)
# Probe 633 (0.34407 0.27834 0)
# Probe 634 (0.28625 0.10688 0)
# Probe 635 (0.63598 0.27708 0)
# Probe 636 (0.5846 0.14212 0)
# Probe 637 (0.66168 0.5221 0)
# Probe 638 (0.64264 0.53189 0)
# Probe 639 (0.53469 0.23886 0)
# Probe 640 (0.55285 0.2349 0)
# Probe 641 (0.55959 0.21771 0)
# Probe 642 (0.57093 0.23248 0)
# Probe 643 (0.56405 0.24823 0)
# Probe 644 (0.58161 0.24698 0)
# Probe 645 (0.57394 0.26287 0)
# Probe 646 (0.59113 0.26083 0)
# Probe 647 (0.59948 0.24532 0)
# Probe 648 (0.819 0.11311 0)
# Probe 649 (0.71761 0.4973 0)
# Probe 650 (0.32206 0.3997 0)
# Probe 651 (0.61985 0.90829 0)
# Probe 652 (0.65566 0.28226 0)
# Probe 653 (0.64978 0.26145 0)
# Probe 654 (0.69763 0.50712 0)
# Probe 655 (0.0934 0.41889 0)
# Probe 656 (0.0854 0.45803 0)
# Probe 657 (0.76098 0.42097 0)
# Probe 658 (0.78605 0.43468 0)
# Probe 659 (0.78607 0.46486 0)
# Probe 660 (0.60815 0.25918 0)
# Probe 661 (0.10581 0.16354 0)
# Probe 662 (0.11574 0.11934 0)
# Probe 663 (0.60447 0.39843 0)
# Probe 664 (0.76367 0.91671 0)
# Probe 665 (0.79814 0.88647 0)
# Probe 666 (0.402 0.78974 0)
# Probe 667 (0.41807 0.69496 0)
# Probe 668 (0.38842 0.7085 0)
# Probe 669 (0.3617 0.68994 0)
# Probe 670 (0.37618 0.41482 0)
# Probe 671 (0.1113 0.85817 0)
# Probe 672 (0.48084 0.09563 0)
# Probe 673 (0.4737 0.52086 0)
# Probe 674 (0.47443 0.50448 0)
# Probe 675 (0.46308 0.49605 0)
# Probe 676 (0.47517 0.48945 0)
# Probe 677 (0.48691 0.49769 0)
# Probe 678 (0.46518 0.48256 0)
# Probe 679 (0.45362 0.48905 0)
# Probe 680 (0.17069 0.52609 0)
# Probe 681 (0.13778 0.5408 0)
# Probe 682 (0.10812 0.51671 0)
# Probe 683 (0.1023 0.55636 0)
# Probe 684 (0.58335 0.92784 0)
# Probe 685 (0.60113 0.45858 0)
# Probe 686 (0.58913 0.44973 0)
# Probe 687 (0.58792 0.43724 0)
# Probe 688 (0.57901 0.4424 0)
# Probe 689 (0.57646 0.45412 0)
# Probe 690 (0.89075 0.3953 0)
# Probe 691 (0.32903 0.37002 0)
# Probe 692 (0.76499 0.3738 0)
# Probe 693 (0.61333 0.36493 0)
# Probe 694 (0.54668 0.9048 0)
# Probe 695 (0.49025 0.23258 0)
# Probe 696 (0.47925 0.22545 0)
# Probe 697 (0.48847 0.06003 0)
# Probe 698 (0.1036 0.90504 0)
# Probe 699 (0.52109 0.23974 0)
# Probe 700 (0.36577 0.39709 0)
# Probe 701 (0.61298 0.33028 0)
# Probe 702 (0.61207 0.34354 0)
# Probe 703 (0.71453 0.52332 0)
# Probe 704 (0.31456 0.1361 0)
# Probe 705 (0.32262 0.09553 0)
# Probe 706 (0.33785 0.30541 0)
# Probe 707 (0.48842 0.4846 0)
# Probe 708 (0.49966 0.49101 0)
# Probe 709 (0.49887 0.50479 0)
# Probe 710 (0.51101 0.49787 0)
# Probe 711 (0.51165 0.48485 0)
# Probe 712 (0.52279 0.49103 0)
# Probe 713 (0.51198 0.51171 0)
# Probe 714 (0.52149 0.47826 0)
# Probe 715 (0.53307 0.48438 0)
# Probe 716 (0.58493 0.27553 0)
# Probe 717 (0.09602 0.20487 0)
# Probe 718 (0.4112 0.21682 0)
# Probe 719 (0.43397 0.21482 0)
# Probe 720 (0.42551 0.23196 0)
# Probe 721 (0.4446 0.22859 0)
# Probe 722 (0.40761 0.23691 0)
# Probe 723 (0.42017 0.24996 0)
# Probe 724 (0.43703 0.24331 0)
# Probe 725 (0.77555 0.27526 0)
# Probe 726 (0.47796 0.23963 0)
# Probe 727 (0.1306 0.58079 0)
# Probe 728 (0.09515 0.59703 0)
# Probe 729 (0.12341 0.6227 0)
# Probe 730 (0.08437 0.63439 0)
# Probe 731 (0.38683 0.42155 0)
# Probe 732 (0.38578 0.43451 0)
# Probe 733 (0.29526 0.38661 0)
# Probe 734 (0.38218 0.30725 0)
# Probe 735 (0.38455 0.29509 0)
# Probe 736 (0.48235 0.1916 0)
# Probe 737 (0.35809 0.7239 0)
# Probe 738 (0.89798 0.13927 0)
# Probe 739 (0.90713 0.18188 0)
# Probe 740 (0.88969 0.09053 0)
# Probe 741 (0.70285 0.15236 0)
# Probe 742 (0.73251 0.12892 0)
# Probe 743 (0.37118 0.35363 0)
# Probe 744 (0.28783 0.44156 0)
# Probe 745 (0.45259 0.24252 0)
# Probe 746 (0.548 0.50725 0)
# Probe 747 (0.60371 0.42703 0)
# Probe 748 (0.60346 0.41395 0)
# Probe 749 (0.59386 0.42086 0)
# Probe 750 (0.11019 0.66116 0)
# Probe 751 (0.54747 0.48917 0)
# Probe 752 (0.56268 0.48283 0)
# Probe 753 (0.55016 0.47486 0)
# Probe 754 (0.56023 0.46848 0)
# Probe 755 (0.57286 0.47397 0)
# Probe 756 (0.54789 0.46317 0)
# Probe 757 (0.53852 0.46781 0)
# Probe 758 (0.04769 0.42435 0)
# Probe 759 (0.37851 0.44864 0)
# Probe 760 (0.4637 0.22891 0)
# Probe 761 (0.78326 0.32203 0)
# Probe 762 (0.06472 0.17547 0)
# Probe 763 (0.53043 0.0438 0)
# Probe 764 (0.49897 0.62554 0)
# Probe 765 (0.52302 0.61363 0)
# Probe 766 (0.54749 0.62684 0)
# Probe 767 (0.54573 0.6021 0)
# Probe 768 (0.56844 0.60957 0)
# Probe 769 (0.56741 0.5872 0)
# Probe 770 (0.41835 0.48087 0)
# Probe 771 (0.43112 0.47489 0)
# Probe 772 (0.42107 0.46749 0)
# Probe 773 (0.43291 0.4632 0)
# Probe 774 (0.40042 0.46733 0)
# Probe 775 (0.40253 0.45446 0)
# Probe 776 (0.47785 0.53876 0)
# Probe 777 (0.9559 0.51965 0)
# Probe 778 (0.94955 0.57018 0)
# Probe 779 (0.91557 0.59904 0)
# Probe 780 (0.69444 0.53389 0)
# Probe 781 (0.30899 0.31963 0)
# Probe 782 (0.30405 0.34218 0)
# Probe 783 (0.54686 0.25046 0)
# Probe 784 (0.6271 0.71387 0)
# Probe 785 (0.65732 0.69721 0)
# Probe 786 (0.6873 0.71444 0)
# Probe 787 (0.5929 0.72594 0)
# Probe 788 (0.08932 0.2457 0)
# Probe 789 (0.83344 0.62124 0)
# Probe 790 (0.79961 0.64579 0)
# Probe 791 (0.86925 0.5976 0)
# Probe 792 (0.79777 0.68405 0)
# Probe 793 (0.76383 0.66742 0)
# Probe 794 (0.72729 0.68429 0)
# Probe 795 (0.73134 0.64945 0)
# Probe 796 (0.05026 0.6031 0)
# Probe 797 (0.61617 0.37727 0)
# Probe 798 (0.72919 0.09247 0)
# Probe 799 (0.76982 0.1097 0)
# Probe 800 (0.7742 0.24398 0)
# Probe 801 (0.39762 0.2899 0)
# Probe 802 (0.73287 0.40876 0)
# Probe 803 (0.36919 0.37141 0)
# Probe 804 (0.37741 0.37936 0)
# Probe 805 (0.49968 0.59672 0)
# Probe 806 (0.42816 0.60543 0)
# Probe 807 (0.40573 0.58575 0)
# Probe 808 (0.40257 0.56117 0)
# Probe 809 (0.38111 0.54756 0)
# Probe 810 (0.3571 0.55628 0)
# Probe 811 (0.36178 0.53334 0)
# Probe 812 (0.34062 0.53899 0)
# Probe 813 (0.34734 0.51296 0)
# Probe 814 (0.04187 0.47573 0)
# Probe 815 (0.65227 0.57032 0)
# Probe 816 (0.62682 0.58771 0)
# Probe 817 (0.60483 0.57526 0)
# Probe 818 (0.62483 0.56258 0)
# Probe 819 (0.60285 0.55072 0)
# Probe 820 (0.56219 0.44085 0)
# Probe 821 (0.57076 0.43445 0)
# Probe 822 (0.59221 0.39727 0)
# Probe 823 (0.49517 0.46792 0)
# Probe 824 (0.47413 0.46685 0)
# Probe 825 (0.68525 0.33403 0)
# Probe 826 (0.9149 0.63765 0)
# Probe 827 (0.94812 0.67223 0)
# Probe 828 (0.60025 0.36449 0)
# Probe 829 (0.59549 0.38722 0)
# Probe 830 (0.41723 0.44029 0)
# Probe 831 (0.56406 0.45164 0)
# Probe 832 (0.46368 0.46479 0)
# Probe 833 (0.22767 0.04844 0)
# Probe 834 (0.19271 0.09395 0)
# Probe 835 (0.14788 0.08413 0)
# Probe 836 (0.61143 0.47093 0)
# Probe 837 (0.44307 0.46856 0)
# Probe 838 (0.72601 0.93635 0)
# Probe 839 (0.06798 0.87165 0)
# Probe 840 (0.51767 0.46671 0)
# Probe 841 (0.08839 0.6989 0)
# Probe 842 (0.77584 0.04006 0)
# Probe 843 (0.39143 0.40532 0)
# Probe 844 (0.6084 0.29778 0)
# Probe 845 (0.59712 0.30686 0)
# Probe 846 (0.59182 0.28994 0)
# Probe 847 (0.60622 0.28358 0)
# Probe 848 (0.59738 0.31749 0)
# Probe 849 (0.72531 0.72359 0)
# Probe 850 (0.4097 0.43278 0)
# Probe 851 (0.68969 0.68248 0)
# Probe 852 (0.38785 0.32392 0)
# Probe 853 (0.38277 0.34332 0)
# Probe 854 (0.31451 0.41624 0)
# Probe 855 (0.59924 0.34482 0)
# Probe 856 (0.4735 0.25197 0)
# Probe 857 (0.40072 0.91709 0)
# Probe 858 (0.43997 0.89195 0)
# Probe 859 (0.43606 0.85081 0)
# Probe 860 (0.46989 0.87226 0)
# Probe 861 (0.47527 0.91462 0)
# Probe 862 (0.75708 0.34333 0)
# Probe 863 (0.12502 0.04105 0)
# Probe 864 (0.40456 0.27197 0)
# Probe 865 (0.40939 0.28641 0)
# Probe 866 (0.41639 0.26445 0)
# Probe 867 (0.78485 0.49608 0)
# Probe 868 (0.62298 0.95573 0)
# Probe 869 (0.51657 0.25539 0)
# Probe 870 (0.49543 0.25184 0)
# Probe 871 (0.57964 0.48858 0)
# Probe 872 (0.82904 0.40068 0)
# Probe 873 (0.85767 0.41685 0)
# Probe 874 (0.64424 0.43631 0)
# Probe 875 (0.37606 0.04212 0)
# Probe 876 (0.40083 0.07938 0)
# Probe 877 (0.32571 0.04761 0)
# Probe 878 (0.44558 0.07737 0)
# Probe 879 (0.5779 0.29527 0)
# Probe 880 (0.58826 0.31428 0)
# Probe 881 (0.62242 0.04046 0)
# Probe 882 (0.67057 0.04341 0)
# Probe 883 (0.95509 0.7224 0)
# Probe 884 (0.3763 0.95942 0)
# Probe 885 (0.58081 0.56679 0)
# Probe 886 (0.44355 0.26184 0)
# Probe 887 (0.52651 0.25796 0)
# Probe 888 (0.59312 0.76621 0)
# Probe 889 (0.56247 0.71772 0)
# Probe 890 (0.53248 0.72743 0)
# Probe 891 (0.59992 0.08191 0)
# Probe 892 (0.58784 0.462 0)
# Probe 893 (0.41975 0.54612 0)
# Probe 894 (0.22344 0.25768 0)
# Probe 895 (0.2232 0.29376 0)
# Probe 896 (0.18926 0.30587 0)
# Probe 897 (0.18505 0.34023 0)
# Probe 898 (0.32149 0.27202 0)
# Probe 899 (0.95656 0.17546 0)
# Probe 900 (0.44198 0.49763 0)
# Probe 901 (0.26932 0.69997 0)
# Probe 902 (0.30074 0.68294 0)
# Probe 903 (0.30529 0.6448 0)
# Probe 904 (0.10058 0.37932 0)
# Probe 905 (0.57304 0.11067 0)
# Probe 906 (0.46367 0.25487 0)
# Probe 907 (0.96027 0.32452 0)
# Probe 908 (0.95975 0.27487 0)
# Probe 909 (0.91733 0.24996 0)
# Probe 910 (0.08083 0.7912 0)
# Probe 911 (0.30553 0.49108 0)
# Probe 912 (0.32546 0.90764 0)
# Probe 913 (0.29144 0.88411 0)
# Probe 914 (0.28582 0.92755 0)
# Probe 915 (0.2431 0.90685 0)
# Probe 916 (0.24451 0.95692 0)
# Probe 917 (0.19077 0.42041 0)
# Probe 918 (0.3521 0.12357 0)
# Probe 919 (0.36032 0.08373 0)
# Probe 920 (0.42614 0.11379 0)
# Probe 921 (0.37686 0.39079 0)
# Probe 922 (0.07773 0.95536 0)
# Probe 923 (0.54446 0.1601 0)
# Probe 924 (0.56211 0.18109 0)
# Probe 925 (0.43361 0.58005 0)
# Probe 926 (0.8735 0.04433 0)
# Probe 927 (0.04995 0.2773 0)
# Probe 928 (0.53434 0.49786 0)
# Probe 929 (0.56278 0.2797 0)
# Probe 930 (0.54637 0.26565 0)
# Probe 931 (0.40098 0.82917 0)
# Probe 932 (0.57765 0.21343 0)
# Probe 933 (0.67458 0.37208 0)
# Probe 934 (0.66934 0.35097 0)
# Probe 935 (0.92038 0.30108 0)
# Probe 936 (0.1556 0.35903 0)
# Probe 937 (0.81324 0.44756 0)
# Probe 938 (0.45541 0.47445 0)
# Probe 939 (0.37694 0.3259 0)
# Probe 940 (0.95687 0.82499 0)
# Probe 941 (0.91401 0.85014 0)
# Probe 942 (0.91543 0.90001 0)
# Probe 943 (0.874 0.87504 0)
# Probe 944 (0.87313 0.8228 0)
# Probe 945 (0.87617 0.92484 0)
# Probe 946 (0.82997 0.84837 0)
# Probe 947 (0.91537 0.79901 0)
# Probe 948 (0.30989 0.46636 0)
# Probe 949 (0.04017 0.32795 0)
# Probe 950 (0.44344 0.45792 0)
# Probe 951 (0.76063 0.47825 0)
# Probe 952 (0.65721 0.40343 0)
# Probe 953 (0.64624 0.41373 0)
# Probe 954 (0.41474 0.45059 0)
# Probe 955 (0.36433 0.23056 0)
# Probe 956 (0.04252 0.72239 0)
# Probe 957 (0.21667 0.32671 0)
# Probe 958 (0.21265 0.36036 0)
# Probe 959 (0.18772 0.91078 0)
# Probe 960 (0.53634 0.45797 0)
# Probe 961 (0.20441 0.51515 0)
# Probe 962 (0.87698 0.24475 0)
# Probe 963 (0.69061 0.74931 0)
# Probe 964 (0.38037 0.24671 0)
# Probe 965 (0.39886 0.43466 0)
# Probe 966 (0.1676 0.56729 0)
# Probe 967 (0.27091 0.62604 0)
# Probe 968 (0.5916 0.17393 0)
# Probe 969 (0.60598 0.38373 0)
# Probe 970 (0.65817 0.38377 0)