# Probe 0 (0 0 0)
# Probe 1 (1 0 0)
# Probe 2 (1 1 0)
# Probe 3 (0 1 0)
# Probe 4 (0.42 0.59 0)
# Probe 5 (0.32 0.49 0)
# Probe 6 (0.22 0.59 0)
# Probe 7 (0.32 0.69 0)
# Probe 8 (0.05 0 0)
# Probe 9 (0.1 0 0)
# Probe 10 (0.15 0 0)
# Probe 11 (0.2 0 0)
# Probe 12 (0.25 0 0)
# Probe 13 (0.3 0 0)
# Probe 14 (0.35 0 0)
# Probe 15 (0.4 0 0)
# Probe 16 (0.45 0 0)
# Probe 17 (0.5 0 0)
# Probe 18 (0.55 0 0)
# Probe 19 (0.6 0 0)
# Probe 20 (0.65 0 0)
# Probe 21 (0.7 0 0)
# Probe 22 (0.75 0 0)
# Probe 23 (0.8 0 0)
# Probe 24 (0.85 0 0)
# Probe 25 (0.9 0 0)
# Probe 26 (0.95 0 0)
# Probe 27 (1 0.05 0)
# Probe 28 (1 0.1 0)
# Probe 29 (1 0.15 0)
# Probe 30 (1 0.2 0)
# Probe 31 (1 0.25 0)
# Probe 32 (1 0.3 0)
# Probe 33 (1 0.35 0)
# Probe 34 (1 0.4 0)
# Probe 35 (1 0.45 0)
# Probe 36 (1 0.5 0)
# Probe 37 (1 0.55 0)
# Probe 38 (1 0.6 0)
# Probe 39 (1 0.65 0)
# Probe 40 (1 0.7 0)
# Probe 41 (1 0.75 0)
# Probe 42 (1 0.8 0)
# Probe 43 (1 0.85 0)
# Probe 44 (1 0.9 0)
# Probe 45 (1 0.95 0)
# Probe 46 (0.95 1 0)
# Probe 47 (0.9 1 0)
# Probe 48 (0.85 1 0)
# Probe 49 (0.8 1 0)
# Probe 50 (0.75 1 0)
# Probe 51 (0.7 1 0)
# Probe 52 (0.65 1 0)
# Probe 53 (0.6 1 0)
# Probe 54 (0.55 1 0)
# Probe 55 (0.5 1 0)
# Probe 56 (0.45 1 0)
# Probe 57 (0.4 1 0)
# Probe 58 (0.35 1 0)
# Probe 59 (0.3 1 0)
# Probe 60 (0.25 1 0)
# Probe 61 (0.2 1 0)
# Probe 62 (0.15 1 0)
# Probe 63 (0.1 1 0)
# Probe 64 (0.05 1 0)
# Probe 65 (0 0.95 0)
# Probe 66 (0 0.9 0)
# Probe 67 (0 0.85 0)
# Probe 68 (0 0.8 0)
# Probe 69 (0 0.75 0)
# Probe 70 (0 0.7 0)
# Probe 71 (0 0.65 0)
# Probe 72 (0 0.6 0)
# Probe 73 (0 0.55 0)
# Probe 74 (0 0.5 0)
# Probe 75 (0 0.45 0)
# Probe 76 (0 0.4 0)
# Probe 77 (0 0.35 0)
# Probe 78 (0 0.3 0)
# Probe 79 (0 0.25 0)
# Probe 80 (0 0.2 0)
# Probe 81 (0 0.15 0)
# Probe 82 (0 0.1 0)
# Probe 83 (0 0.05 0)
# Probe 84 (0.41952 0.5802 0)
# Probe 85 (0.41808 0.57049 0)
# Probe 86 (0.41569 0.56097 0)
# Probe 87 (0.41239 0.55173 0)
# Probe 88 (0.40819 0.54286 0)
# Probe 89 (0.40315 0.53444 0)
# Probe 90 (0.3973 0.52656 0)
# Probe 91 (0.39071 0.51929 0)
# Probe 92 (0.38344 0.5127 0)
# Probe 93 (0.37556 0.50685 0)
# Probe 94 (0.36714 0.50181 0)
# Probe 95 (0.35827 0.49761 0)
# Probe 96 (0.34903 0.49431 0)
# Probe 97 (0.33951 0.49192 0)
# Probe 98 (0.3298 0.49048 0)
# Probe 99 (0.3102 0.49048 0)
# Probe 100 (0.30049 0.49192 0)
# Probe 101 (0.29097 0.49431 0)
# Probe 102 (0.28173 0.49761 0)
# Probe 103 (0.27286 0.50181 0)
# Probe 104 (0.26444 0.50685 0)
# Probe 105 (0.25656 0.5127 0)
# Probe 106 (0.24929 0.51929 0)
# Probe 107 (0.2427 0.52656 0)
# Probe 108 (0.23685 0.53444 0)
# Probe 109 (0.23181 0.54286 0)
# Probe 110 (0.22761 0.55173 0)
# Probe 111 (0.22431 0.56097 0)
# Probe 112 (0.22192 0.57049 0)
# Probe 113 (0.22048 0.5802 0)
# Probe 114 (0.22048 0.5998 0)
# Probe 115 (0.22192 0.60951 0)
# Probe 116 (0.22431 0.61903 0)
# Probe 117 (0.22761 0.62827 0)
# Probe 118 (0.23181 0.63714 0)
# Probe 119 (0.23685 0.64556 0)
# Probe 120 (0.2427 0.65344 0)
# Probe 121 (0.24929 0.66071 0)
# Probe 122 (0.25656 0.6673 0)
# Probe 123 (0.26444 0.67315 0)
# Probe 124 (0.27286 0.67819 0)
# Probe 125 (0.28173 0.68239 0)
# Probe 126 (0.29097 0.68569 0)
# Probe 127 (0.30049 0.68808 0)
# Probe 128 (0.3102 0.68952 0)
# Probe 129 (0.3298 0.68952 0)
# Probe 130 (0.33951 0.68808 0)
# Probe 131 (0.34903 0.68569 0)
# Probe 132 (0.35827 0.68239 0)
# Probe 133 (0.36714 0.67819 0)
# Probe 134 (0.37556 0.67315 0)
# Probe 135 (0.38344 0.6673 0)
# Probe 136 (0.39071 0.66071 0)
# Probe 137 (0.3973 0.65344 0)
# Probe 138 (0.40315 0.64556 0)
# Probe 139 (0.40819 0.63714 0)
# Probe 140 (0.41239 0.62827 0)
# Probe 141 (0.41569 0.61903 0)
# Probe 142 (0.41808 0.60951 0)
# Probe 143 (0.41952 0.5998 0)
# Probe 144 (0.95606 0.37764 0)
# Probe 145 (0.61923 0.04167 0)
# Probe 146 (0.96104 0.67309 0)
# Probe 147 (0.67353 0.95726 0)
# Probe 148 (0.47379 0.0426 0)
# Probe 149 (0.27773 0.04642 0)
# Probe 150 (0.03967 0.27381 0)
# Probe 151 (0.95728 0.5242 0)
# Probe 152 (0.52387 0.95544 0)
# Probe 153 (0.21458 0.5634 0)
# Probe 154 (0.21462 0.61667 0)
# Probe 155 (0.17754 0.95854 0)
# Probe 156 (0.77714 0.04699 0)
# Probe 157 (0.37738 0.96177 0)
# Probe 158 (0.04245 0.7706 0)
# Probe 159 (0.22698 0.64565 0)
# Probe 160 (0.04182 0.42739 0)
# Probe 161 (0.22704 0.53428 0)
# Probe 162 (0.9567 0.225 0)
# Probe 163 (0.21175 0.59532 0)
# Probe 164 (0.82474 0.95439 0)
# Probe 165 (0.0433 0.675 0)
# Probe 166 (0.04296 0.52176 0)
# Probe 167 (0.95968 0.8289 0)
# Probe 168 (0.2764 0.96426 0)
# Probe 169 (0.04239 0.1762 0)
# Probe 170 (0.17624 0.03851 0)
# Probe 171 (0.37878 0.04031 0)
# Probe 172 (0.87328 0.04488 0)
# Probe 173 (0.04534 0.88604 0)
# Probe 174 (0.95205 0.12459 0)
# Probe 175 (0.92436 0.96346 0)
# Probe 176 (0.04166 0.07368 0)
# Probe 177 (0.075 0.9567 0)
# Probe 178 (0.04161 0.72208 0)
# Probe 179 (0.07911 0.74885 0)
# Probe 180 (0.08237 0.78864 0)
# Probe 181 (0.11233 0.76554 0)
# Probe 182 (0.24722 0.6703 0)
# Probe 183 (0.11112 0.7318 0)
# Probe 184 (0.1401 0.74607 0)
# Probe 185 (0.14288 0.77827 0)
# Probe 186 (0.16766 0.75972 0)
# Probe 187 (0.17107 0.78936 0)
# Probe 188 (0.19424 0.77224 0)
# Probe 189 (0.28331 0.69212 0)
# Probe 190 (0.26439 0.68272 0)
# Probe 191 (0.14151 0.71352 0)
# Probe 192 (0.19803 0.8001 0)
# Probe 193 (0.22043 0.78397 0)
# Probe 194 (0.18833 0.74481 0)
# Probe 195 (0.22422 0.81092 0)
# Probe 196 (0.24597 0.79484 0)
# Probe 197 (0.24134 0.76602 0)
# Probe 198 (0.26621 0.77942 0)
# Probe 199 (0.3147 0.69799 0)
# Probe 200 (0.27105 0.80461 0)
# Probe 201 (0.28925 0.78879 0)
# Probe 202 (0.29539 0.81492 0)
# Probe 203 (0.3142 0.79421 0)
# Probe 204 (0.34627 0.69479 0)
# Probe 205 (0.32048 0.82379 0)
# Probe 206 (0.34045 0.80595 0)
# Probe 207 (0.33686 0.78068 0)
# Probe 208 (0.36268 0.78512 0)
# Probe 209 (0.36597 0.81437 0)
# Probe 210 (0.38666 0.79609 0)
# Probe 211 (0.37518 0.68301 0)
# Probe 212 (0.39157 0.82313 0)
# Probe 213 (0.41128 0.80455 0)
# Probe 214 (0.4059 0.77929 0)
# Probe 215 (0.42929 0.78655 0)
# Probe 216 (0.422 0.76022 0)
# Probe 217 (0.44575 0.76905 0)
# Probe 218 (0.40001 0.66355 0)
# Probe 219 (0.44043 0.74682 0)
# Probe 220 (0.46228 0.75331 0)
# Probe 221 (0.45662 0.73267 0)
# Probe 222 (0.47851 0.73796 0)
# Probe 223 (0.47096 0.71587 0)
# Probe 224 (0.49431 0.72213 0)
# Probe 225 (0.48876 0.70088 0)
# Probe 226 (0.51081 0.70667 0)
# Probe 227 (0.50525 0.6853 0)
# Probe 228 (0.52712 0.69082 0)
# Probe 229 (0.52266 0.66991 0)
# Probe 230 (0.54391 0.67527 0)
# Probe 231 (0.53805 0.65273 0)
# Probe 232 (0.56056 0.65909 0)
# Probe 233 (0.55382 0.63574 0)
# Probe 234 (0.57772 0.64268 0)
# Probe 235 (0.57238 0.61959 0)
# Probe 236 (0.59595 0.62582 0)
# Probe 237 (0.5895 0.60114 0)
# Probe 238 (0.42721 0.5741 0)
# Probe 239 (0.60164 0.65053 0)
# Probe 240 (0.61483 0.60794 0)
# Probe 241 (0.60704 0.58096 0)
# Probe 242 (0.63528 0.58932 0)
# Probe 243 (0.62799 0.56145 0)
# Probe 244 (0.59943 0.55369 0)
# Probe 245 (0.6204 0.53415 0)
# Probe 246 (0.59287 0.52637 0)
# Probe 247 (0.61315 0.50635 0)
# Probe 248 (0.58535 0.49865 0)
# Probe 249 (0.60579 0.47835 0)
# Probe 250 (0.57781 0.47106 0)
# Probe 251 (0.59853 0.45014 0)
# Probe 252 (0.57002 0.44322 0)
# Probe 253 (0.40711 0.52543 0)
# Probe 254 (0.59122 0.42125 0)
# Probe 255 (0.5615 0.414 0)
# Probe 256 (0.58291 0.39168 0)
# Probe 257 (0.55257 0.38453 0)
# Probe 258 (0.63446 0.48479 0)
# Probe 259 (0.65649 0.5689 0)
# Probe 260 (0.6638 0.5984 0)
# Probe 261 (0.53126 0.71334 0)
# Probe 262 (0.48406 0.76067 0)
# Probe 263 (0.61391 0.39946 0)
# Probe 264 (0.60582 0.36906 0)
# Probe 265 (0.42702 0.60591 0)
# Probe 266 (0.63776 0.37667 0)
# Probe 267 (0.63037 0.34368 0)
# Probe 268 (0.53177 0.40624 0)
# Probe 269 (0.52308 0.37712 0)
# Probe 270 (0.5025 0.39792 0)
# Probe 271 (0.49366 0.36983 0)
# Probe 272 (0.37576 0.49706 0)
# Probe 273 (0.66323 0.35243 0)
# Probe 274 (0.51426 0.34836 0)
# Probe 275 (0.48512 0.34202 0)
# Probe 276 (0.46506 0.3631 0)
# Probe 277 (0.45644 0.33609 0)
# Probe 278 (0.43785 0.35699 0)
# Probe 279 (0.42912 0.33055 0)
# Probe 280 (0.41096 0.35095 0)
# Probe 281 (0.33558 0.48137 0)
# Probe 282 (0.40233 0.32504 0)
# Probe 283 (0.38449 0.34502 0)
# Probe 284 (0.37578 0.31996 0)
# Probe 285 (0.35815 0.33949 0)
# Probe 286 (0.27366 0.49203 0)
# Probe 287 (0.30257 0.48343 0)
# Probe 288 (0.34933 0.31479 0)
# Probe 289 (0.33252 0.33369 0)
# Probe 290 (0.32285 0.30815 0)
# Probe 291 (0.30731 0.32774 0)
# Probe 292 (0.29513 0.30175 0)
# Probe 293 (0.50553 0.31909 0)
# Probe 294 (0.3931 0.30145 0)
# Probe 295 (0.68676 0.5748 0)
# Probe 296 (0.69372 0.60737 0)
# Probe 297 (0.27806 0.32821 0)
# Probe 298 (0.65495 0.31696 0)
# Probe 299 (0.54832 0.61224 0)
# Probe 300 (0.55866 0.49178 0)
# Probe 301 (0.26554 0.29488 0)
# Probe 302 (0.41902 0.63881 0)
# Probe 303 (0.68972 0.32696 0)
# Probe 304 (0.69849 0.36345 0)
# Probe 305 (0.3143 0.2822 0)
# Probe 306 (0.71803 0.5828 0)
# Probe 307 (0.72526 0.61731 0)
# Probe 308 (0.24542 0.31872 0)
# Probe 309 (0.39379 0.37019 0)
# Probe 310 (0.41857 0.54368 0)
# Probe 311 (0.3558 0.48939 0)
# Probe 312 (0.39292 0.50949 0)
# Probe 313 (0.68054 0.29054 0)
# Probe 314 (0.2546 0.34933 0)
# Probe 315 (0.24736 0.50958 0)
# Probe 316 (0.7261 0.33684 0)
# Probe 317 (0.73537 0.37528 0)
# Probe 318 (0.64426 0.28049 0)
# Probe 319 (0.23414 0.28744 0)
# Probe 320 (0.21882 0.34373 0)
# Probe 321 (0.23473 0.3714 0)
# Probe 322 (0.26223 0.37679 0)
# Probe 323 (0.75063 0.59344 0)
# Probe 324 (0.75793 0.62828 0)
# Probe 325 (0.73224 0.65197 0)
# Probe 326 (0.76622 0.6634 0)
# Probe 327 (0.73865 0.68864 0)
# Probe 328 (0.67077 0.25309 0)
# Probe 329 (0.63184 0.24359 0)
# Probe 330 (0.77485 0.69987 0)
# Probe 331 (0.74593 0.72616 0)
# Probe 332 (0.50346 0.66196 0)
# Probe 333 (0.74329 0.55498 0)
# Probe 334 (0.4361 0.81102 0)
# Probe 335 (0.24751 0.39982 0)
# Probe 336 (0.21937 0.3935 0)
# Probe 337 (0.27376 0.39957 0)
# Probe 338 (0.44572 0.38771 0)
# Probe 339 (0.76389 0.34719 0)
# Probe 340 (0.77317 0.38637 0)
# Probe 341 (0.22875 0.41735 0)
# Probe 342 (0.2031 0.41357 0)
# Probe 343 (0.78541 0.60554 0)
# Probe 344 (0.78381 0.73781 0)
# Probe 345 (0.75439 0.76431 0)
# Probe 346 (0.71658 0.75237 0)
# Probe 347 (0.21262 0.43658 0)
# Probe 348 (0.18756 0.43345 0)
# Probe 349 (0.17691 0.41156 0)
# Probe 350 (0.19984 0.45822 0)
# Probe 351 (0.17254 0.45343 0)
# Probe 352 (0.18443 0.47952 0)
# Probe 353 (0.39902 0.75736 0)
# Probe 354 (0.47143 0.69564 0)
# Probe 355 (0.65975 0.21455 0)
# Probe 356 (0.69955 0.22484 0)
# Probe 357 (0.62057 0.20491 0)
# Probe 358 (0.43592 0.72655 0)
# Probe 359 (0.7932 0.7774 0)
# Probe 360 (0.72315 0.79119 0)
# Probe 361 (0.68727 0.77718 0)
# Probe 362 (0.25606 0.26308 0)
# Probe 363 (0.22303 0.25529 0)
# Probe 364 (0.24691 0.22873 0)
# Probe 365 (0.21105 0.22042 0)
# Probe 366 (0.19691 0.28637 0)
# Probe 367 (0.3705 0.84286 0)
# Probe 368 (0.39809 0.85171 0)
# Probe 369 (0.80287 0.67463 0)
# Probe 370 (0.27457 0.83602 0)
# Probe 371 (0.34369 0.35717 0)
# Probe 372 (0.1772 0.82151 0)
# Probe 373 (0.56634 0.68205 0)
# Probe 374 (0.44623 0.30955 0)
# Probe 375 (0.7444 0.41395 0)
# Probe 376 (0.78223 0.42528 0)
# Probe 377 (0.15706 0.47389 0)
# Probe 378 (0.16607 0.49724 0)
# Probe 379 (0.51103 0.42576 0)
# Probe 380 (0.68843 0.18463 0)
# Probe 381 (0.72823 0.19409 0)
# Probe 382 (0.28255 0.7677 0)
# Probe 383 (0.23651 0.19274 0)
# Probe 384 (0.27203 0.20064 0)
# Probe 385 (0.1986 0.18362 0)
# Probe 386 (0.80289 0.35858 0)
# Probe 387 (0.79278 0.31797 0)
# Probe 388 (0.68027 0.73952 0)
# Probe 389 (0.65259 0.76381 0)
# Probe 390 (0.6591 0.80065 0)
# Probe 391 (0.62499 0.78907 0)
# Probe 392 (0.63188 0.82321 0)
# Probe 393 (0.59756 0.81242 0)
# Probe 394 (0.57184 0.54436 0)
# Probe 395 (0.23571 0.43983 0)
# Probe 396 (0.82364 0.74916 0)
# Probe 397 (0.59395 0.23209 0)
# Probe 398 (0.58173 0.19567 0)
# Probe 399 (0.60715 0.84597 0)
# Probe 400 (0.5712 0.83441 0)
# Probe 401 (0.55547 0.22125 0)
# Probe 402 (0.54301 0.18649 0)
# Probe 403 (0.51681 0.21185 0)
# Probe 404 (0.50493 0.17802 0)
# Probe 405 (0.47516 0.211 0)
# Probe 406 (0.46579 0.16407 0)
# Probe 407 (0.43777 0.19674 0)
# Probe 408 (0.17229 0.21312 0)
# Probe 409 (0.14894 0.44883 0)
# Probe 410 (0.66573 0.83705 0)
# Probe 411 (0.83343 0.32961 0)
# Probe 412 (0.82276 0.28766 0)
# Probe 413 (0.52648 0.15232 0)
# Probe 414 (0.42855 0.15896 0)
# Probe 415 (0.4016 0.18723 0)
# Probe 416 (0.13595 0.49333 0)
# Probe 417 (0.15008 0.51809 0)
# Probe 418 (0.15897 0.17481 0)
# Probe 419 (0.8336 0.79042 0)
# Probe 420 (0.80172 0.81954 0)
# Probe 421 (0.84363 0.83345 0)
# Probe 422 (0.56454 0.80098 0)
# Probe 423 (0.53799 0.82249 0)
# Probe 424 (0.84205 0.37051 0)
# Probe 425 (0.53646 0.32568 0)
# Probe 426 (0.86536 0.76068 0)
# Probe 427 (0.66987 0.62837 0)
# Probe 428 (0.26272 0.16444 0)
# Probe 429 (0.20538 0.47921 0)
# Probe 430 (0.17477 0.51973 0)
# Probe 431 (0.16353 0.5415 0)
# Probe 432 (0.13605 0.53903 0)
# Probe 433 (0.14731 0.56041 0)
# Probe 434 (0.12088 0.56013 0)
# Probe 435 (0.1366 0.58441 0)
# Probe 436 (0.61904 0.75402 0)
# Probe 437 (0.67785 0.54623 0)
# Probe 438 (0.75327 0.4521 0)
# Probe 439 (0.79128 0.46414 0)
# Probe 440 (0.64542 0.40941 0)
# Probe 441 (0.60937 0.16668 0)
# Probe 442 (0.39181 0.14974 0)
# Probe 443 (0.10443 0.58313 0)
# Probe 444 (0.1179 0.60899 0)
# Probe 445 (0.14585 0.61114 0)
# Probe 446 (0.13288 0.63578 0)
# Probe 447 (0.15853 0.63268 0)
# Probe 448 (0.11271 0.6999 0)
# Probe 449 (0.71795 0.15349 0)
# Probe 450 (0.7604 0.16493 0)
# Probe 451 (0.86513 0.29964 0)
# Probe 452 (0.85424 0.25652 0)
# Probe 453 (0.54364 0.85663 0)
# Probe 454 (0.51064 0.8438 0)
# Probe 455 (0.35349 0.76281 0)
# Probe 456 (0.33459 0.75757 0)
# Probe 457 (0.34931 0.74408 0)
# Probe 458 (0.33273 0.738 0)
# Probe 459 (0.16955 0.5626 0)
# Probe 460 (0.16963 0.61287 0)
# Probe 461 (0.18188 0.6312 0)
# Probe 462 (0.17034 0.6509 0)
# Probe 463 (0.18965 0.65021 0)
# Probe 464 (0.1807 0.66745 0)
# Probe 465 (0.20072 0.66564 0)
# Probe 466 (0.19089 0.68309 0)
# Probe 467 (0.20885 0.6828 0)
# Probe 468 (0.48405 0.41795 0)
# Probe 469 (0.49098 0.44231 0)
# Probe 470 (0.46739 0.43681 0)
# Probe 471 (0.47371 0.45839 0)
# Probe 472 (0.45321 0.45283 0)
# Probe 473 (0.45884 0.47291 0)
# Probe 474 (0.47809 0.47824 0)
# Probe 475 (0.46352 0.49208 0)
# Probe 476 (0.48179 0.49735 0)
# Probe 477 (0.46851 0.51038 0)
# Probe 478 (0.48583 0.5156 0)
# Probe 479 (0.47378 0.52791 0)
# Probe 480 (0.49012 0.53319 0)
# Probe 481 (0.4763 0.54584 0)
# Probe 482 (0.44009 0.46768 0)
# Probe 483 (0.43407 0.44958 0)
# Probe 484 (0.49387 0.55074 0)
# Probe 485 (0.48077 0.56383 0)
# Probe 486 (0.42212 0.46328 0)
# Probe 487 (0.41638 0.44626 0)
# Probe 488 (0.40489 0.45922 0)
# Probe 489 (0.39937 0.44281 0)
# Probe 490 (0.4271 0.48035 0)
# Probe 491 (0.49787 0.5682 0)
# Probe 492 (0.48477 0.58027 0)
# Probe 493 (0.38827 0.45529 0)
# Probe 494 (0.38291 0.43952 0)
# Probe 495 (0.37202 0.45162 0)
# Probe 496 (0.36664 0.43612 0)
# Probe 497 (0.35575 0.44801 0)
# Probe 498 (0.35071 0.43253 0)
# Probe 499 (0.34071 0.44426 0)
# Probe 500 (0.3347 0.4292 0)
# Probe 501 (0.3246 0.44358 0)
# Probe 502 (0.50768 0.53828 0)
# Probe 503 (0.45638 0.52527 0)
# Probe 504 (0.3609 0.42026 0)
# Probe 505 (0.46858 0.57603 0)
# Probe 506 (0.472 0.59207 0)
# Probe 507 (0.48801 0.59695 0)
# Probe 508 (0.47501 0.60851 0)
# Probe 509 (0.49142 0.61422 0)
# Probe 510 (0.47807 0.62487 0)
# Probe 511 (0.41082 0.42974 0)
# Probe 512 (0.31826 0.42533 0)
# Probe 513 (0.30718 0.43832 0)
# Probe 514 (0.49664 0.48392 0)
# Probe 515 (0.4625 0.61946 0)
# Probe 516 (0.46513 0.6349 0)
# Probe 517 (0.45707 0.58697 0)
# Probe 518 (0.33002 0.41171 0)
# Probe 519 (0.45083 0.62904 0)
# Probe 520 (0.45302 0.64433 0)
# Probe 521 (0.36611 0.17748 0)
# Probe 522 (0.35317 0.13406 0)
# Probe 523 (0.37545 0.2144 0)
# Probe 524 (0.28713 0.38229 0)
# Probe 525 (0.39343 0.47065 0)
# Probe 526 (0.45368 0.57254 0)
# Probe 527 (0.49478 0.24019 0)
# Probe 528 (0.07996 0.61115 0)
# Probe 529 (0.50513 0.60228 0)
# Probe 530 (0.18616 0.14443 0)
# Probe 531 (0.14495 0.13422 0)
# Probe 532 (0.73698 0.23089 0)
# Probe 533 (0.13128 0.20594 0)
# Probe 534 (0.7165 0.44093 0)
# Probe 535 (0.72504 0.47739 0)
# Probe 536 (0.41631 0.1199 0)
# Probe 537 (0.1586 0.67025 0)
# Probe 538 (0.37597 0.87283 0)
# Probe 539 (0.40323 0.8843 0)
# Probe 540 (0.34645 0.72722 0)
# Probe 541 (0.36258 0.73193 0)
# Probe 542 (0.51388 0.45069 0)
# Probe 543 (0.19921 0.70029 0)
# Probe 544 (0.2185 0.69846 0)
# Probe 545 (0.52704 0.29472 0)
# Probe 546 (0.55863 0.30226 0)
# Probe 547 (0.3111 0.45466 0)
# Probe 548 (0.29556 0.45109 0)
# Probe 549 (0.50858 0.62082 0)
# Probe 550 (0.70422 0.67676 0)
# Probe 551 (0.29032 0.43494 0)
# Probe 552 (0.27852 0.44787 0)
# Probe 553 (0.2849 0.46323 0)
# Probe 554 (0.27002 0.46097 0)
# Probe 555 (0.51573 0.87822 0)
# Probe 556 (0.48326 0.86487 0)
# Probe 557 (0.54805 0.89067 0)
# Probe 558 (0.81019 0.86339 0)
# Probe 559 (0.85372 0.87804 0)
# Probe 560 (0.76836 0.849 0)
# Probe 561 (0.46754 0.65043 0)
# Probe 562 (0.45498 0.66006 0)
# Probe 563 (0.44037 0.65407 0)
# Probe 564 (0.44248 0.66932 0)
# Probe 565 (0.42775 0.66147 0)
# Probe 566 (0.43045 0.67782 0)
# Probe 567 (0.3313 0.72152 0)
# Probe 568 (0.31812 0.72954 0)
# Probe 569 (0.14705 0.24258 0)
# Probe 570 (0.3595 0.7162 0)
# Probe 571 (0.37443 0.72096 0)
# Probe 572 (0.77729 0.89118 0)
# Probe 573 (0.7358 0.87822 0)
# Probe 574 (0.53341 0.79017 0)
# Probe 575 (0.55773 0.7702 0)
# Probe 576 (0.85529 0.71937 0)
# Probe 577 (0.82083 0.43707 0)
# Probe 578 (0.82983 0.47667 0)
# Probe 579 (0.86057 0.44862 0)
# Probe 580 (0.79933 0.50416 0)
# Probe 581 (0.83842 0.51662 0)
# Probe 582 (0.48657 0.89927 0)
# Probe 583 (0.67565 0.14317 0)
# Probe 584 (0.70651 0.11096 0)
# Probe 585 (0.18037 0.6996 0)
# Probe 586 (0.11046 0.53383 0)
# Probe 587 (0.36127 0.46514 0)
# Probe 588 (0.89715 0.73059 0)
# Probe 589 (0.88595 0.68683 0)
# Probe 590 (0.4485 0.61581 0)
# Probe 591 (0.43573 0.62492 0)
# Probe 592 (0.37122 0.70616 0)
# Probe 593 (0.38598 0.71042 0)
# Probe 594 (0.38965 0.72543 0)
# Probe 595 (0.40089 0.71484 0)
# Probe 596 (0.3971 0.69974 0)
# Probe 597 (0.4121 0.70488 0)
# Probe 598 (0.40759 0.69126 0)
# Probe 599 (0.21654 0.66851 0)
# Probe 600 (0.34084 0.20622 0)
# Probe 601 (0.53009 0.76057 0)
# Probe 602 (0.3477 0.86264 0)
# Probe 603 (0.35023 0.89506 0)
# Probe 604 (0.31699 0.87848 0)
# Probe 605 (0.81259 0.24436 0)
# Probe 606 (0.8431 0.2128 0)
# Probe 607 (0.19936 0.63593 0)
# Probe 608 (0.27327 0.43194 0)
# Probe 609 (0.68999 0.46544 0)
# Probe 610 (0.20947 0.71547 0)
# Probe 611 (0.22813 0.71404 0)
# Probe 612 (0.23467 0.69718 0)
# Probe 613 (0.24709 0.71046 0)
# Probe 614 (0.23853 0.72879 0)
# Probe 615 (0.25645 0.72676 0)
# Probe 616 (0.26398 0.71219 0)
# Probe 617 (0.27527 0.72344 0)
# Probe 618 (0.74967 0.92013 0)
# Probe 619 (0.46989 0.66685 0)
# Probe 620 (0.80803 0.54401 0)
# Probe 621 (0.8471 0.55687 0)
# Probe 622 (0.87915 0.52927 0)
# Probe 623 (0.887 0.57066 0)
# Probe 624 (0.85512 0.59835 0)
# Probe 625 (0.89495 0.6127 0)
# Probe 626 (0.11163 0.23584 0)
# Probe 627 (0.12415 0.27411 0)
# Probe 628 (0.35231 0.24003 0)
# Probe 629 (0.31674 0.23326 0)
# Probe 630 (0.38561 0.24737 0)
# Probe 631 (0.31231 0.40742 0)
# Probe 632 (0.32502 0.39643 0)
# Probe 633 (0.34471 0.39782 0)
# Probe 634 (0.41699 0.6725 0)
# Probe 635 (0.07163 0.57832 0)
# Probe 636 (0.92612 0.58377 0)
# Probe 637 (0.26738 0.7407 0)
# Probe 638 (0.89642 0.26917 0)
# Probe 639 (0.9084 0.3133 0)
# Probe 640 (0.32378 0.91793 0)
# Probe 641 (0.44448 0.58207 0)
# Probe 642 (0.1617 0.59285 0)
# Probe 643 (0.18229 0.59793 0)
# Probe 644 (0.48104 0.8306 0)
# Probe 645 (0.4573 0.84752 0)
# Probe 646 (0.44402 0.68432 0)
# Probe 647 (0.40521 0.73068 0)
# Probe 648 (0.88528 0.8457 0)
# Probe 649 (0.6691 0.10633 0)
# Probe 650 (0.39328 0.68546 0)
# Probe 651 (0.44642 0.59522 0)
# Probe 652 (0.18918 0.61325 0)
# Probe 653 (0.90916 0.77221 0)
# Probe 654 (0.69531 0.49725 0)
# Probe 655 (0.56848 0.33415 0)
# Probe 656 (0.5884 0.30556 0)
# Probe 657 (0.43187 0.69246 0)
# Probe 658 (0.4454 0.69982 0)
# Probe 659 (0.90605 0.88957 0)
# Probe 660 (0.2972 0.16864 0)
# Probe 661 (0.28895 0.13378 0)
# Probe 662 (0.25125 0.12583 0)
# Probe 663 (0.28575 0.73763 0)
# Probe 664 (0.29201 0.72273 0)
# Probe 665 (0.41544 0.65872 0)
# Probe 666 (0.36301 0.26847 0)
# Probe 667 (0.2054 0.64866 0)
# Probe 668 (0.6923 0.07119 0)
# Probe 669 (0.72858 0.51695 0)
# Probe 670 (0.49503 0.29126 0)
# Probe 671 (0.4604 0.41393 0)
# Probe 672 (0.22439 0.45621 0)
# Probe 673 (0.22677 0.48125 0)
# Probe 674 (0.24351 0.4598 0)
# Probe 675 (0.18872 0.50304 0)
# Probe 676 (0.1975 0.52265 0)
# Probe 677 (0.20767 0.5076 0)
# Probe 678 (0.18569 0.53807 0)
# Probe 679 (0.20272 0.53977 0)
# Probe 680 (0.19503 0.55326 0)
# Probe 681 (0.28758 0.90444 0)
# Probe 682 (0.3439 0.71289 0)
# Probe 683 (0.33005 0.70699 0)
# Probe 684 (0.38419 0.77143 0)
# Probe 685 (0.27455 0.47389 0)
# Probe 686 (0.26366 0.47212 0)
# Probe 687 (0.21168 0.63643 0)
# Probe 688 (0.22701 0.68173 0)
# Probe 689 (0.04618 0.81434 0)
# Probe 690 (0.09038 0.82964 0)
# Probe 691 (0.21436 0.75403 0)
# Probe 692 (0.43645 0.58924 0)
# Probe 693 (0.16484 0.73274 0)
# Probe 694 (0.5539 0.74315 0)
# Probe 695 (0.57863 0.74964 0)
# Probe 696 (0.57393 0.72279 0)
# Probe 697 (0.38186 0.75217 0)
# Probe 698 (0.29007 0.4773 0)
# Probe 699 (0.30033 0.4648 0)
# Probe 700 (0.31403 0.46788 0)
# Probe 701 (0.32506 0.4606 0)
# Probe 702 (0.22925 0.66609 0)
# Probe 703 (0.21259 0.52133 0)
# Probe 704 (0.22399 0.50993 0)
# Probe 705 (0.04081 0.63023 0)
# Probe 706 (0.37779 0.46697 0)
# Probe 707 (0.38276 0.47985 0)
# Probe 708 (0.39615 0.48449 0)
# Probe 709 (0.37035 0.47823 0)
# Probe 710 (0.31759 0.76781 0)
# Probe 711 (0.38417 0.6971 0)
# Probe 712 (0.43933 0.56923 0)
# Probe 713 (0.4495 0.55928 0)
# Probe 714 (0.43586 0.55603 0)
# Probe 715 (0.44559 0.54654 0)
# Probe 716 (0.43072 0.54297 0)
# Probe 717 (0.94813 0.27483 0)
# Probe 718 (0.44239 0.534 0)
# Probe 719 (0.42926 0.52954 0)
# Probe 720 (0.43984 0.52028 0)
# Probe 721 (0.4254 0.5172 0)
# Probe 722 (0.43448 0.50796 0)
# Probe 723 (0.42209 0.50508 0)
# Probe 724 (0.70009 0.90843 0)
# Probe 725 (0.17263 0.1055 0)
# Probe 726 (0.13108 0.0919 0)
# Probe 727 (0.10049 0.12587 0)
# Probe 728 (0.25129 0.42511 0)
# Probe 729 (0.86237 0.64097 0)
# Probe 730 (0.04054 0.47342 0)
# Probe 731 (0.08428 0.4501 0)
# Probe 732 (0.08195 0.40808 0)
# Probe 733 (0.07717 0.49079 0)
# Probe 734 (0.04443 0.38411 0)
# Probe 735 (0.08596 0.36942 0)
# Probe 736 (0.11655 0.39138 0)
# Probe 737 (0.12188 0.35356 0)
# Probe 738 (0.08586 0.33441 0)
# Probe 739 (0.14891 0.37443 0)
# Probe 740 (0.15545 0.33939 0)
# Probe 741 (0.18424 0.36078 0)
# Probe 742 (0.18851 0.32426 0)
# Probe 743 (0.16056 0.30404 0)
# Probe 744 (0.43939 0.63857 0)
# Probe 745 (0.42923 0.64664 0)
# Probe 746 (0.5241 0.60782 0)
# Probe 747 (0.51936 0.58938 0)
# Probe 748 (0.52937 0.63176 0)
# Probe 749 (0.51093 0.64041 0)
# Probe 750 (0.94185 0.74215 0)
# Probe 751 (0.6757 0.42787 0)
# Probe 752 (0.54683 0.27158 0)
# Probe 753 (0.45828 0.60327 0)
# Probe 754 (0.44549 0.48689 0)
# Probe 755 (0.2826 0.87025 0)
# Probe 756 (0.25369 0.89357 0)
# Probe 757 (0.4189 0.37683 0)
# Probe 758 (0.40085 0.39322 0)
# Probe 759 (0.37941 0.3889 0)
# Probe 760 (0.42272 0.40017 0)
# Probe 761 (0.38701 0.40879 0)
# Probe 762 (0.36711 0.36705 0)
# Probe 763 (0.4104 0.47762 0)
# Probe 764 (0.40663 0.49088 0)
# Probe 765 (0.31908 0.71527 0)
# Probe 766 (0.34586 0.45944 0)
# Probe 767 (0.35012 0.47326 0)
# Probe 768 (0.04372 0.31678 0)
# Probe 769 (0.2824 0.09434 0)
# Probe 770 (0.24138 0.08298 0)
# Probe 771 (0.3155 0.07372 0)
# Probe 772 (0.45172 0.50643 0)
# Probe 773 (0.7976 0.19651 0)
# Probe 774 (0.83199 0.16775 0)
# Probe 775 (0.87491 0.18053 0)
# Probe 776 (0.8636 0.13442 0)
# Probe 777 (0.82355 0.11874 0)
# Probe 778 (0.56596 0.51793 0)
# Probe 779 (0.54081 0.51022 0)
# Probe 780 (0.53292 0.48687 0)
# Probe 781 (0.51863 0.50578 0)
# Probe 782 (0.54724 0.53499 0)
# Probe 783 (0.55188 0.56086 0)
# Probe 784 (0.57751 0.57511 0)
# Probe 785 (0.52773 0.55162 0)
# Probe 786 (0.55374 0.58563 0)
# Probe 787 (0.22639 0.95412 0)
# Probe 788 (0.19884 0.91629 0)
# Probe 789 (0.15729 0.91776 0)
# Probe 790 (0.18078 0.88206 0)
# Probe 791 (0.14126 0.8797 0)
# Probe 792 (0.11639 0.91306 0)
# Probe 793 (0.25131 0.85697 0)
# Probe 794 (0.404 0.67616 0)
# Probe 795 (0.28079 0.35835 0)
# Probe 796 (0.30479 0.36654 0)
# Probe 797 (0.32708 0.47284 0)
# Probe 798 (0.50468 0.80623 0)
# Probe 799 (0.47556 0.79945 0)
# Probe 800 (0.24291 0.68299 0)
# Probe 801 (0.25063 0.69324 0)
# Probe 802 (0.55202 0.4655 0)
# Probe 803 (0.08333 0.65106 0)
# Probe 804 (0.41028 0.22305 0)
# Probe 805 (0.41836 0.25829 0)
# Probe 806 (0.25725 0.4457 0)
# Probe 807 (0.82292 0.62041 0)
# Probe 808 (0.11055 0.47644 0)
# Probe 809 (0.11005 0.42265 0)
# Probe 810 (0.53956 0.4382 0)
# Probe 811 (0.42637 0.56405 0)
# Probe 812 (0.44289 0.23382 0)
# Probe 813 (0.45008 0.26265 0)
# Probe 814 (0.34633 0.48487 0)
# Probe 815 (0.42529 0.6164 0)
# Probe 816 (0.31503 0.48004 0)
# Probe 817 (0.45901 0.54918 0)
# Probe 818 (0.41256 0.64669 0)
# Probe 819 (0.42253 0.62722 0)
# Probe 820 (0.65613 0.45916 0)
# Probe 821 (0.39275 0.67087 0)
# Probe 822 (0.76984 0.52959 0)
# Probe 823 (0.40036 0.51716 0)
# Probe 824 (0.4022 0.50805 0)
# Probe 825 (0.3847 0.50249 0)
# Probe 826 (0.13697 0.6846 0)
# Probe 827 (0.1122 0.67191 0)
# Probe 828 (0.08606 0.68523 0)
# Probe 829 (0.36589 0.48993 0)
# Probe 830 (0.41274 0.53455 0)
# Probe 831 (0.42327 0.55324 0)
# Probe 832 (0.11653 0.80265 0)
# Probe 833 (0.23281 0.65471 0)
# Probe 834 (0.25525 0.67711 0)
# Probe 835 (0.70913 0.71487 0)
# Probe 836 (0.67432 0.70267 0)
# Probe 837 (0.66844 0.66176 0)
# Probe 838 (0.64255 0.6885 0)
# Probe 839 (0.63285 0.6585 0)
# Probe 840 (0.64377 0.72686 0)
# Probe 841 (0.61869 0.7083 0)
# Probe 842 (0.38449 0.67786 0)
# Probe 843 (0.36594 0.68801 0)
# Probe 844 (0.29308 0.69577 0)
# Probe 845 (0.28481 0.70285 0)
# Probe 846 (0.27193 0.70013 0)
# Probe 847 (0.2966 0.70842 0)
# Probe 848 (0.42563 0.04098 0)
# Probe 849 (0.4472 0.08911 0)
# Probe 850 (0.49582 0.08409 0)
# Probe 851 (0.52129 0.0435 0)
# Probe 852 (0.54316 0.08939 0)
# Probe 853 (0.47596 0.123 0)
# Probe 854 (0.5721 0.04343 0)
# Probe 855 (0.5965 0.09156 0)
# Probe 856 (0.57056 0.12259 0)
# Probe 857 (0.23311 0.52555 0)
# Probe 858 (0.22206 0.54355 0)
# Probe 859 (0.35642 0.69198 0)
# Probe 860 (0.04068 0.2255 0)
# Probe 861 (0.30392 0.69786 0)
# Probe 862 (0.95207 0.61915 0)
# Probe 863 (0.28438 0.48845 0)
# Probe 864 (0.2642 0.49676 0)
# Probe 865 (0.73058 0.83303 0)
# Probe 866 (0.24012 0.51744 0)
# Probe 867 (0.25539 0.5029 0)
# Probe 868 (0.25387 0.49148 0)
# Probe 869 (0.08633 0.20185 0)
# Probe 870 (0.47523 0.39174 0)
# Probe 871 (0.09366 0.87215 0)
# Probe 872 (0.21202 0.57367 0)
# Probe 873 (0.218 0.55352 0)
# Probe 874 (0.20329 0.56544 0)
# Probe 875 (0.20257 0.57866 0)
# Probe 876 (0.19031 0.5685 0)
# Probe 877 (0.4116 0.51474 0)
# Probe 878 (0.42505 0.96084 0)
# Probe 879 (0.47389 0.96178 0)
# Probe 880 (0.28401 0.41789 0)
# Probe 881 (0.3185 0.74746 0)
# Probe 882 (0.50672 0.77813 0)
# Probe 883 (0.57517 0.95968 0)
# Probe 884 (0.62453 0.95862 0)
# Probe 885 (0.60107 0.92399 0)
# Probe 886 (0.64883 0.91786 0)
# Probe 887 (0.70676 0.40122 0)
# Probe 888 (0.90902 0.15167 0)
# Probe 889 (0.90119 0.09338 0)
# Probe 890 (0.95544 0.07417 0)
# Probe 891 (0.4473 0.43299 0)
# Probe 892 (0.35494 0.70329 0)
# Probe 893 (0.21177 0.58464 0)
# Probe 894 (0.212 0.60595 0)
# Probe 895 (0.19957 0.60087 0)
# Probe 896 (0.95721 0.47595 0)
# Probe 897 (0.91594 0.50235 0)
# Probe 898 (0.90765 0.45334 0)
# Probe 899 (0.95576 0.42727 0)
# Probe 900 (0.91587 0.40417 0)
# Probe 901 (0.60439 0.27133 0)
# Probe 902 (0.95544 0.17431 0)
# Probe 903 (0.12606 0.04709 0)
# Probe 904 (0.05035 0.12423 0)
# Probe 905 (0.22011 0.87771 0)
# Probe 906 (0.19596 0.84938 0)
# Probe 907 (0.73906 0.08024 0)
# Probe 908 (0.61165 0.67768 0)
# Probe 909 (0.21668 0.49486 0)
# Probe 910 (0.23202 0.49614 0)
# Probe 911 (0.59011 0.78013 0)
# Probe 912 (0.12811 0.9585 0)
# Probe 913 (0.66371 0.8769 0)
# Probe 914 (0.61641 0.88385 0)
# Probe 915 (0.12932 0.8392 0)
# Probe 916 (0.91245 0.35994 0)
# Probe 917 (0.86311 0.92083 0)
# Probe 918 (0.95417 0.32928 0)
# Probe 919 (0.76122 0.49072 0)
# Probe 920 (0.82768 0.04254 0)
# Probe 921 (0.85083 0.08523 0)
# Probe 922 (0.95678 0.87487 0)
# Probe 923 (0.45227 0.92343 0)
# Probe 924 (0.77213 0.95998 0)
# Probe 925 (0.78377 0.27678 0)
# Probe 926 (0.40096 0.08127 0)
# Probe 927 (0.1445 0.41445 0)
# Probe 928 (0.33557 0.69671 0)
# Probe 929 (0.48409 0.67916 0)
# Probe 930 (0.22234 0.65654 0)
# Probe 931 (0.77857 0.56811 0)
# Probe 932 (0.70772 0.5503 0)
# Probe 933 (0.28236 0.23757 0)
# Probe 934 (0.42237 0.73954 0)
# Probe 935 (0.81619 0.58221 0)
# Probe 936 (0.07312 0.91081 0)
# Probe 937 (0.30306 0.73509 0)
# Probe 938 (0.53393 0.57318 0)
# Probe 939 (0.31014 0.70761 0)
# Probe 940 (0.40353 0.92306 0)
# Probe 941 (0.81973 0.90552 0)
# Probe 942 (0.7619 0.80575 0)
# Probe 943 (0.22063 0.73131 0)
# Probe 944 (0.69896 0.64059 0)
# Probe 945 (0.22444 0.04033 0)
# Probe 946 (0.75456 0.30869 0)
# Probe 947 (0.35699 0.08389 0)
# Probe 948 (0.43117 0.49513 0)
# Probe 949 (0.88418 0.22547 0)
# Probe 950 (0.64236 0.61673 0)
# Probe 951 (0.24141 0.48672 0)
# Probe 952 (0.58994 0.69661 0)
# Probe 953 (0.6487 0.54094 0)
# Probe 954 (0.66868 0.51681 0)
# Probe 955 (0.32125 0.10882 0)
# Probe 956 (0.70811 0.26212 0)
# Probe 957 (0.8119 0.39802 0)
# Probe 958 (0.2492 0.74445 0)
# Probe 959 (0.75067 0.12609 0)
# Probe 960 (0.78375 0.10064 0)
# Probe 961 (0.30647 0.71995 0)
# Probe 962 (0.41778 0.72112 0)
# Probe 963 (0.67123 0.38851 0)
# Probe 964 (0.63358 0.1279 0)
# Probe 965 (0.4559 0.88205 0)
# Probe 966 (0.9165 0.65286 0)
# Probe 967 (0.87534 0.80291 0)
# Probe 968 (0.64858 0.1756 0)
# Probe 969 (0.87192 0.48781 0)
# Probe 970 (0.51213 0.26713 0)
# Probe 971 (0.07501 0.04086 0)