# Probe 0 (0 0 0)
# Probe 1 (1 0 0)
# Probe 2 (1 1 0)
# Probe 3 (0 1 0)
# Probe 4 (0.71 0.35 0)
# Probe 5 (0.61 0.25 0)
# Probe 6 (0.51 0.35 0)
# Probe 7 (0.61 0.45 0)
# Probe 8 (0.05 0 0)
# Probe 9 (0.1 0 0)
# Probe 10 (0.15 0 0)
# Probe 11 (0.2 0 0)
# Probe 12 (0.25 0 0)
# Probe 13 (0.3 0 0)
# Probe 14 (0.35 0 0)
# Probe 15 (0.4 0 0)
# Probe 16 (0.45 0 0)
# Probe 17 (0.5 0 0)
# Probe 18 (0.55 0 0)
# Probe 19 (0.6 0 0)
# Probe 20 (0.65 0 0)
# Probe 21 (0.7 0 0)
# Probe 22 (0.75 0 0)
# Probe 23 (0.8 0 0)
# Probe 24 (0.85 0 0)
# Probe 25 (0.9 0 0)
# Probe 26 (0.95 0 0)
# Probe 27 (1 0.05 0)
# Probe 28 (1 0.1 0)
# Probe 29 (1 0.15 0)
# Probe 30 (1 0.2 0)
# Probe 31 (1 0.25 0)
# Probe 32 (1 0.3 0)
# Probe 33 (1 0.35 0)
# Probe 34 (1 0.4 0)
# Probe 35 (1 0.45 0)
# Probe 36 (1 0.5 0)
# Probe 37 (1 0.55 0)
# Probe 38 (1 0.6 0)
# Probe 39 (1 0.65 0)
# Probe 40 (1 0.7 0)
# Probe 41 (1 0.75 0)
# Probe 42 (1 0.8 0)
# Probe 43 (1 0.85 0)
# Probe 44 (1 0.9 0)
# Probe 45 (1 0.95 0)
# Probe 46 (0.95 1 0)
# Probe 47 (0.9 1 0)
# Probe 48 (0.85 1 0)
# Probe 49 (0.8 1 0)
# Probe 50 (0.75 1 0)
# Probe 51 (0.7 1 0)
# Probe 52 (0.65 1 0)
# Probe 53 (0.6 1 0)
# Probe 54 (0.55 1 0)
# Probe 55 (0.5 1 0)
# Probe 56 (0.45 1 0)
# Probe 57 (0.4 1 0)
# Probe 58 (0.35 1 0)
# Probe 59 (0.3 1 0)
# Probe 60 (0.25 1 0)
# Probe 61 (0.2 1 0)
# Probe 62 (0.15 1 0)
# Probe 63 (0.1 1 0)
# Probe 64 (0.05 1 0)
# Probe 65 (0 0.95 0)
# Probe 66 (0 0.9 0)
# Probe 67 (0 0.85 0)
# Probe 68 (0 0.8 0)
# Probe 69 (0 0.75 0)
# Probe 70 (0 0.7 0)
# Probe 71 (0 0.65 0)
# Probe 72 (0 0.6 0)
# Probe 73 (0 0.55 0)
# Probe 74 (0 0.5 0)
# Probe 75 (0 0.45 0)
# Probe 76 (0 0.4 0)
# Probe 77 (0 0.35 0)
# Probe 78 (0 0.3 0)
# Probe 79 (0 0.25 0)
# Probe 80 (0 0.2 0)
# Probe 81 (0 0.15 0)
# Probe 82 (0 0.1 0)
# Probe 83 (0 0.05 0)
# Probe 84 (0.70952 0.3402 0)
# Probe 85 (0.70808 0.33049 0)
# Probe 86 (0.70569 0.32097 0)
# Probe 87 (0.70239 0.31173 0)
# Probe 88 (0.69819 0.30286 0)
# Probe 89 (0.69315 0.29444 0)
# Probe 90 (0.6873 0.28656 0)
# Probe 91 (0.68071 0.27929 0)
# Probe 92 (0.67344 0.2727 0)
# Probe 93 (0.66556 0.26685 0)
# Probe 94 (0.65714 0.26181 0)
# Probe 95 (0.64827 0.25761 0)
# Probe 96 (0.63903 0.25431 0)
# Probe 97 (0.62951 0.25192 0)
# Probe 98 (0.6198 0.25048 0)
# Probe 99 (0.6002 0.25048 0)
# Probe 100 (0.59049 0.25192 0)
# Probe 101 (0.58097 0.25431 0)
# Probe 102 (0.57173 0.25761 0)
# Probe 103 (0.56286 0.26181 0)
# Probe 104 (0.55444 0.26685 0)
# Probe 105 (0.54656 0.2727 0)
# Probe 106 (0.53929 0.27929 0)
# Probe 107 (0.5327 0.28656 0)
# Probe 108 (0.52685 0.29444 0)
# Probe 109 (0.52181 0.30286 0)
# Probe 110 (0.51761 0.31173 0)
# Probe 111 (0.51431 0.32097 0)
# Probe 112 (0.51192 0.33049 0)
# Probe 113 (0.51048 0.3402 0)
# Probe 114 (0.51048 0.3598 0)
# Probe 115 (0.51192 0.36951 0)
# Probe 116 (0.51431 0.37903 0)
# Probe 117 (0.51761 0.38827 0)
# Probe 118 (0.52181 0.39714 0)
# Probe 119 (0.52685 0.40556 0)
# Probe 120 (0.5327 0.41344 0)
# Probe 121 (0.53929 0.42071 0)
# Probe 122 (0.54656 0.4273 0)
# Probe 123 (0.55444 0.43315 0)
# Probe 124 (0.56286 0.43819 0)
# Probe 125 (0.57173 0.44239 0)
# Probe 126 (0.58097 0.44569 0)
# Probe 127 (0.59049 0.44808 0)
# Probe 128 (0.6002 0.44952 0)
# Probe 129 (0.6198 0.44952 0)
# Probe 130 (0.62951 0.44808 0)
# Probe 131 (0.63903 0.44569 0)
# Probe 132 (0.64827 0.44239 0)
# Probe 133 (0.65714 0.43819 0)
# Probe 134 (0.66556 0.43315 0)
# Probe 135 (0.67344 0.4273 0)
# Probe 136 (0.68071 0.42071 0)
# Probe 137 (0.6873 0.41344 0)
# Probe 138 (0.69315 0.40556 0)
# Probe 139 (0.69819 0.39714 0)
# Probe 140 (0.70239 0.38827 0)
# Probe 141 (0.70569 0.37903 0)
# Probe 142 (0.70808 0.36951 0)
# Probe 143 (0.70952 0.3598 0)
# Probe 144 (0.3752 0.95155 0)
# Probe 145 (0.04269 0.61957 0)
# Probe 146 (0.67448 0.95867 0)
# Probe 147 (0.04783 0.46949 0)
# Probe 148 (0.04414 0.27502 0)
# Probe 149 (0.96177 0.67671 0)
# Probe 150 (0.3229 0.04671 0)
# Probe 151 (0.52613 0.95728 0)
# Probe 152 (0.95852 0.53433 0)
# Probe 153 (0.22478 0.95646 0)
# Probe 154 (0.96181 0.22873 0)
# Probe 155 (0.77351 0.04541 0)
# Probe 156 (0.64765 0.24787 0)
# Probe 157 (0.95787 0.37721 0)
# Probe 158 (0.47996 0.04483 0)
# Probe 159 (0.58402 0.24455 0)
# Probe 160 (0.04174 0.77335 0)
# Probe 161 (0.6259 0.24279 0)
# Probe 162 (0.60364 0.24132 0)
# Probe 163 (0.82614 0.96094 0)
# Probe 164 (0.17537 0.04257 0)
# Probe 165 (0.67185 0.04096 0)
# Probe 166 (0.575 0.0433 0)
# Probe 167 (0.95575 0.82879 0)
# Probe 168 (0.03846 0.17422 0)
# Probe 169 (0.03831 0.37254 0)
# Probe 170 (0.04001 0.87339 0)
# Probe 171 (0.86999 0.04073 0)
# Probe 172 (0.95233 0.12836 0)
# Probe 173 (0.12534 0.9569 0)
# Probe 174 (0.92344 0.95275 0)
# Probe 175 (0.04183 0.07338 0)
# Probe 176 (0.62536 0.04055 0)
# Probe 177 (0.64833 0.07857 0)
# Probe 178 (0.68907 0.07972 0)
# Probe 179 (0.66639 0.11664 0)
# Probe 180 (0.63095 0.11154 0)
# Probe 181 (0.70037 0.11571 0)
# Probe 182 (0.68501 0.14336 0)
# Probe 183 (0.71287 0.14474 0)
# Probe 184 (0.68301 0.26965 0)
# Probe 185 (0.69509 0.17083 0)
# Probe 186 (0.72397 0.17081 0)
# Probe 187 (0.66893 0.16646 0)
# Probe 188 (0.71009 0.1933 0)
# Probe 189 (0.73431 0.19385 0)
# Probe 190 (0.71204 0.31349 0)
# Probe 191 (0.71721 0.33429 0)
# Probe 192 (0.70296 0.29428 0)
# Probe 193 (0.75152 0.17322 0)
# Probe 194 (0.7595 0.20135 0)
# Probe 195 (0.78007 0.17594 0)
# Probe 196 (0.79115 0.20358 0)
# Probe 197 (0.77382 0.22683 0)
# Probe 198 (0.80178 0.23039 0)
# Probe 199 (0.78618 0.25157 0)
# Probe 200 (0.81212 0.25614 0)
# Probe 201 (0.7927 0.27965 0)
# Probe 202 (0.82169 0.28208 0)
# Probe 203 (0.80451 0.30339 0)
# Probe 204 (0.82921 0.31108 0)
# Probe 205 (0.8135 0.32952 0)
# Probe 206 (0.71798 0.36727 0)
# Probe 207 (0.82143 0.20784 0)
# Probe 208 (0.7618 0.24675 0)
# Probe 209 (0.78894 0.32494 0)
# Probe 210 (0.79718 0.34793 0)
# Probe 211 (0.82157 0.35399 0)
# Probe 212 (0.80515 0.37282 0)
# Probe 213 (0.83081 0.37863 0)
# Probe 214 (0.8087 0.39821 0)
# Probe 215 (0.70797 0.39634 0)
# Probe 216 (0.83896 0.40427 0)
# Probe 217 (0.81991 0.4239 0)
# Probe 218 (0.79434 0.41993 0)
# Probe 219 (0.80233 0.44289 0)
# Probe 220 (0.6901 0.42268 0)
# Probe 221 (0.77877 0.43723 0)
# Probe 222 (0.785 0.46024 0)
# Probe 223 (0.80866 0.46643 0)
# Probe 224 (0.79102 0.48321 0)
# Probe 225 (0.76795 0.47693 0)
# Probe 226 (0.77354 0.49961 0)
# Probe 227 (0.75092 0.49291 0)
# Probe 228 (0.75559 0.51616 0)
# Probe 229 (0.65547 0.44798 0)
# Probe 230 (0.77951 0.52333 0)
# Probe 231 (0.76104 0.54012 0)
# Probe 232 (0.7371 0.53261 0)
# Probe 233 (0.74222 0.55689 0)
# Probe 234 (0.7184 0.54874 0)
# Probe 235 (0.72328 0.57328 0)
# Probe 236 (0.69947 0.56552 0)
# Probe 237 (0.70432 0.58994 0)
# Probe 238 (0.68036 0.58212 0)
# Probe 239 (0.68538 0.60673 0)
# Probe 240 (0.66163 0.59927 0)
# Probe 241 (0.66619 0.62413 0)
# Probe 242 (0.64173 0.61587 0)
# Probe 243 (0.61485 0.45771 0)
# Probe 244 (0.64648 0.64179 0)
# Probe 245 (0.62135 0.63365 0)
# Probe 246 (0.69105 0.63256 0)
# Probe 247 (0.62604 0.66032 0)
# Probe 248 (0.59969 0.65088 0)
# Probe 249 (0.59463 0.62315 0)
# Probe 250 (0.57369 0.64123 0)
# Probe 251 (0.58334 0.45499 0)
# Probe 252 (0.56839 0.61464 0)
# Probe 253 (0.54828 0.63189 0)
# Probe 254 (0.54319 0.60552 0)
# Probe 255 (0.52292 0.62287 0)
# Probe 256 (0.5178 0.59627 0)
# Probe 257 (0.49728 0.61385 0)
# Probe 258 (0.49215 0.5869 0)
# Probe 259 (0.47133 0.60468 0)
# Probe 260 (0.46617 0.57734 0)
# Probe 261 (0.44501 0.59539 0)
# Probe 262 (0.44021 0.56792 0)
# Probe 263 (0.52915 0.42267 0)
# Probe 264 (0.41846 0.58581 0)
# Probe 265 (0.41248 0.55797 0)
# Probe 266 (0.55428 0.44296 0)
# Probe 267 (0.39157 0.57602 0)
# Probe 268 (0.38468 0.54719 0)
# Probe 269 (0.39756 0.6021 0)
# Probe 270 (0.50213 0.6413 0)
# Probe 271 (0.74793 0.58082 0)
# Probe 272 (0.36432 0.56468 0)
# Probe 273 (0.35813 0.53613 0)
# Probe 274 (0.38026 0.51735 0)
# Probe 275 (0.35302 0.5067 0)
# Probe 276 (0.37441 0.48872 0)
# Probe 277 (0.50817 0.38637 0)
# Probe 278 (0.3488 0.47853 0)
# Probe 279 (0.3702 0.46122 0)
# Probe 280 (0.34483 0.45117 0)
# Probe 281 (0.36568 0.4344 0)
# Probe 282 (0.3408 0.42442 0)
# Probe 283 (0.36165 0.40825 0)
# Probe 284 (0.33668 0.39836 0)
# Probe 285 (0.35748 0.38221 0)
# Probe 286 (0.33235 0.37232 0)
# Probe 287 (0.35283 0.35582 0)
# Probe 288 (0.50279 0.3341 0)
# Probe 289 (0.32834 0.34646 0)
# Probe 290 (0.349 0.32891 0)
# Probe 291 (0.52295 0.28544 0)
# Probe 292 (0.32312 0.32123 0)
# Probe 293 (0.57848 0.66941 0)
# Probe 294 (0.32899 0.52547 0)
# Probe 295 (0.31916 0.44137 0)
# Probe 296 (0.30666 0.363 0)
# Probe 297 (0.34499 0.30119 0)
# Probe 298 (0.31709 0.29267 0)
# Probe 299 (0.34067 0.27227 0)
# Probe 300 (0.39433 0.46937 0)
# Probe 301 (0.46163 0.55008 0)
# Probe 302 (0.37121 0.28598 0)
# Probe 303 (0.36448 0.25454 0)
# Probe 304 (0.31236 0.26081 0)
# Probe 305 (0.5622 0.59007 0)
# Probe 306 (0.28746 0.28357 0)
# Probe 307 (0.65847 0.57484 0)
# Probe 308 (0.38128 0.36664 0)
# Probe 309 (0.50279 0.3659 0)
# Probe 310 (0.51622 0.40555 0)
# Probe 311 (0.50796 0.31349 0)
# Probe 312 (0.63709 0.45648 0)
# Probe 313 (0.53744 0.26996 0)
# Probe 314 (0.39122 0.2649 0)
# Probe 315 (0.55437 0.25716 0)
# Probe 316 (0.3868 0.23632 0)
# Probe 317 (0.282 0.2489 0)
# Probe 318 (0.41277 0.24682 0)
# Probe 319 (0.25599 0.27169 0)
# Probe 320 (0.69313 0.5393 0)
# Probe 321 (0.40909 0.21869 0)
# Probe 322 (0.43713 0.23218 0)
# Probe 323 (0.24996 0.236 0)
# Probe 324 (0.41374 0.2734 0)
# Probe 325 (0.38311 0.20608 0)
# Probe 326 (0.84836 0.43091 0)
# Probe 327 (0.51282 0.57049 0)
# Probe 328 (0.43179 0.20189 0)
# Probe 329 (0.45721 0.21207 0)
# Probe 330 (0.38607 0.41866 0)
# Probe 331 (0.27644 0.21516 0)
# Probe 332 (0.22273 0.25869 0)
# Probe 333 (0.22946 0.29521 0)
# Probe 334 (0.21602 0.22243 0)
# Probe 335 (0.78568 0.54806 0)
# Probe 336 (0.45333 0.18381 0)
# Probe 337 (0.4788 0.19413 0)
# Probe 338 (0.74603 0.47168 0)
# Probe 339 (0.81485 0.4911 0)
# Probe 340 (0.4616 0.23865 0)
# Probe 341 (0.45267 0.61809 0)
# Probe 342 (0.65283 0.66924 0)
# Probe 343 (0.63113 0.68902 0)
# Probe 344 (0.66138 0.69845 0)
# Probe 345 (0.63665 0.71923 0)
# Probe 346 (0.66904 0.72968 0)
# Probe 347 (0.64167 0.75259 0)
# Probe 348 (0.67507 0.76304 0)
# Probe 349 (0.70231 0.73846 0)
# Probe 350 (0.70878 0.77401 0)
# Probe 351 (0.73713 0.7477 0)
# Probe 352 (0.64878 0.78689 0)
# Probe 353 (0.61389 0.77506 0)
# Probe 354 (0.74441 0.78647 0)
# Probe 355 (0.77271 0.75968 0)
# Probe 356 (0.62161 0.81065 0)
# Probe 357 (0.58544 0.79829 0)
# Probe 358 (0.76492 0.72088 0)
# Probe 359 (0.78194 0.79813 0)
# Probe 360 (0.80083 0.73266 0)
# Probe 361 (0.79184 0.69501 0)
# Probe 362 (0.77183 0.41661 0)
# Probe 363 (0.19446 0.28262 0)
# Probe 364 (0.20214 0.31901 0)
# Probe 365 (0.47486 0.16694 0)
# Probe 366 (0.50039 0.17746 0)
# Probe 367 (0.44849 0.15492 0)
# Probe 368 (0.73037 0.48559 0)
# Probe 369 (0.50069 0.20204 0)
# Probe 370 (0.52446 0.19011 0)
# Probe 371 (0.52179 0.16209 0)
# Probe 372 (0.54481 0.17374 0)
# Probe 373 (0.65414 0.8226 0)
# Probe 374 (0.75191 0.8261 0)
# Probe 375 (0.84188 0.25812 0)
# Probe 376 (0.72609 0.46671 0)
# Probe 377 (0.67372 0.43551 0)
# Probe 378 (0.71247 0.47896 0)
# Probe 379 (0.59305 0.84105 0)
# Probe 380 (0.5569 0.82319 0)
# Probe 381 (0.54943 0.78536 0)
# Probe 382 (0.5211 0.80981 0)
# Probe 383 (0.51431 0.77273 0)
# Probe 384 (0.48584 0.79668 0)
# Probe 385 (0.47967 0.76003 0)
# Probe 386 (0.45089 0.78373 0)
# Probe 387 (0.44477 0.74716 0)
# Probe 388 (0.41592 0.77083 0)
# Probe 389 (0.41077 0.73544 0)
# Probe 390 (0.38097 0.75811 0)
# Probe 391 (0.37827 0.72446 0)
# Probe 392 (0.34594 0.74561 0)
# Probe 393 (0.34589 0.70473 0)
# Probe 394 (0.31046 0.73156 0)
# Probe 395 (0.3028 0.69358 0)
# Probe 396 (0.2726 0.71847 0)
# Probe 397 (0.265 0.67734 0)
# Probe 398 (0.31501 0.76964 0)
# Probe 399 (0.2347 0.70465 0)
# Probe 400 (0.22751 0.66396 0)
# Probe 401 (0.24179 0.74504 0)
# Probe 402 (0.19621 0.69096 0)
# Probe 403 (0.38701 0.79523 0)
# Probe 404 (0.45566 0.81937 0)
# Probe 405 (0.18949 0.65032 0)
# Probe 406 (0.22083 0.62382 0)
# Probe 407 (0.18325 0.60984 0)
# Probe 408 (0.21456 0.58448 0)
# Probe 409 (0.17701 0.56996 0)
# Probe 410 (0.20797 0.54496 0)
# Probe 411 (0.17096 0.53032 0)
# Probe 412 (0.20136 0.50553 0)
# Probe 413 (0.16489 0.4914 0)
# Probe 414 (0.19548 0.46722 0)
# Probe 415 (0.15855 0.45267 0)
# Probe 416 (0.85085 0.35656 0)
# Probe 417 (0.77422 0.34273 0)
# Probe 418 (0.76696 0.32312 0)
# Probe 419 (0.16583 0.3074 0)
# Probe 420 (0.15805 0.26908 0)
# Probe 421 (0.2514 0.59834 0)
# Probe 422 (0.54361 0.14663 0)
# Probe 423 (0.54827 0.19714 0)
# Probe 424 (0.56655 0.18415 0)
# Probe 425 (0.82838 0.70582 0)
# Probe 426 (0.81843 0.66903 0)
# Probe 427 (0.83888 0.74449 0)
# Probe 428 (0.15666 0.67686 0)
# Probe 429 (0.16402 0.71905 0)
# Probe 430 (0.50746 0.73683 0)
# Probe 431 (0.51762 0.13371 0)
# Probe 432 (0.13912 0.55549 0)
# Probe 433 (0.76847 0.14769 0)
# Probe 434 (0.80086 0.15064 0)
# Probe 435 (0.19454 0.42357 0)
# Probe 436 (0.15224 0.41363 0)
# Probe 437 (0.23129 0.48196 0)
# Probe 438 (0.7914 0.83918 0)
# Probe 439 (0.76007 0.86779 0)
# Probe 440 (0.70881 0.46156 0)
# Probe 441 (0.69607 0.47329 0)
# Probe 442 (0.72092 0.44981 0)
# Probe 443 (0.69907 0.49004 0)
# Probe 444 (0.6833 0.48427 0)
# Probe 445 (0.33162 0.66295 0)
# Probe 446 (0.44174 0.71348 0)
# Probe 447 (0.52612 0.84774 0)
# Probe 448 (0.78297 0.65941 0)
# Probe 449 (0.80881 0.63393 0)
# Probe 450 (0.84403 0.64245 0)
# Probe 451 (0.83537 0.60878 0)
# Probe 452 (0.8693 0.6165 0)
# Probe 453 (0.86082 0.58241 0)
# Probe 454 (0.86708 0.40783 0)
# Probe 455 (0.87819 0.43888 0)
# Probe 456 (0.56786 0.20649 0)
# Probe 457 (0.58555 0.19637 0)
# Probe 458 (0.58506 0.17266 0)
# Probe 459 (0.604 0.1837 0)
# Probe 460 (0.55165 0.21741 0)
# Probe 461 (0.71855 0.21301 0)
# Probe 462 (0.69792 0.21313 0)
# Probe 463 (0.66464 0.2581 0)
# Probe 464 (0.70627 0.23101 0)
# Probe 465 (0.75471 0.33975 0)
# Probe 466 (0.76088 0.36054 0)
# Probe 467 (0.74578 0.32334 0)
# Probe 468 (0.7575 0.30697 0)
# Probe 469 (0.122 0.70734 0)
# Probe 470 (0.89587 0.59048 0)
# Probe 471 (0.23672 0.33103 0)
# Probe 472 (0.13078 0.74825 0)
# Probe 473 (0.6049 0.2043 0)
# Probe 474 (0.62128 0.19402 0)
# Probe 475 (0.62313 0.17351 0)
# Probe 476 (0.68108 0.46784 0)
# Probe 477 (0.6671 0.47649 0)
# Probe 478 (0.67038 0.49444 0)
# Probe 479 (0.65537 0.48838 0)
# Probe 480 (0.65788 0.50455 0)
# Probe 481 (0.64281 0.49857 0)
# Probe 482 (0.64516 0.51497 0)
# Probe 483 (0.62913 0.5087 0)
# Probe 484 (0.63189 0.52572 0)
# Probe 485 (0.61519 0.51918 0)
# Probe 486 (0.61813 0.53703 0)
# Probe 487 (0.60135 0.53019 0)
# Probe 488 (0.59869 0.51253 0)
# Probe 489 (0.58501 0.523 0)
# Probe 490 (0.58306 0.50612 0)
# Probe 491 (0.56921 0.51625 0)
# Probe 492 (0.5683 0.4971 0)
# Probe 493 (0.55379 0.50919 0)
# Probe 494 (0.55152 0.49266 0)
# Probe 495 (0.53819 0.5028 0)
# Probe 496 (0.53588 0.48627 0)
# Probe 497 (0.52256 0.49647 0)
# Probe 498 (0.52029 0.47963 0)
# Probe 499 (0.50691 0.48985 0)
# Probe 500 (0.50477 0.47297 0)
# Probe 501 (0.49077 0.48349 0)
# Probe 502 (0.48856 0.46584 0)
# Probe 503 (0.47385 0.47709 0)
# Probe 504 (0.47192 0.45844 0)
# Probe 505 (0.48627 0.44807 0)
# Probe 506 (0.4703 0.44066 0)
# Probe 507 (0.50891 0.50738 0)
# Probe 508 (0.55507 0.52657 0)
# Probe 509 (0.48393 0.43049 0)
# Probe 510 (0.46857 0.42302 0)
# Probe 511 (0.45436 0.43312 0)
# Probe 512 (0.45343 0.41571 0)
# Probe 513 (0.4672 0.40592 0)
# Probe 514 (0.45275 0.39862 0)
# Probe 515 (0.4662 0.3895 0)
# Probe 516 (0.45163 0.38219 0)
# Probe 517 (0.46701 0.37161 0)
# Probe 518 (0.45099 0.3657 0)
# Probe 519 (0.46404 0.35571 0)
# Probe 520 (0.44956 0.34934 0)
# Probe 521 (0.46324 0.34037 0)
# Probe 522 (0.44853 0.33288 0)
# Probe 523 (0.4637 0.32509 0)
# Probe 524 (0.43641 0.3758 0)
# Probe 525 (0.43342 0.3423 0)
# Probe 526 (0.59647 0.49609 0)
# Probe 527 (0.51847 0.46205 0)
# Probe 528 (0.60359 0.54903 0)
# Probe 529 (0.45629 0.46946 0)
# Probe 530 (0.45868 0.48968 0)
# Probe 531 (0.62892 0.49256 0)
# Probe 532 (0.43941 0.4244 0)
# Probe 533 (0.54827 0.4766 0)
# Probe 534 (0.43214 0.32395 0)
# Probe 535 (0.49897 0.43764 0)
# Probe 536 (0.41481 0.33489 0)
# Probe 537 (0.68738 0.23034 0)
# Probe 538 (0.67885 0.21349 0)
# Probe 539 (0.8678 0.71617 0)
# Probe 540 (0.87845 0.7562 0)
# Probe 541 (0.88577 0.55467 0)
# Probe 542 (0.48011 0.3968 0)
# Probe 543 (0.4765 0.34675 0)
# Probe 544 (0.75813 0.43082 0)
# Probe 545 (0.75225 0.41154 0)
# Probe 546 (0.64835 0.53214 0)
# Probe 547 (0.73953 0.306 0)
# Probe 548 (0.74943 0.29145 0)
# Probe 549 (0.7325 0.29091 0)
# Probe 550 (0.54224 0.11652 0)
# Probe 551 (0.76704 0.39539 0)
# Probe 552 (0.74577 0.39394 0)
# Probe 553 (0.736 0.40797 0)
# Probe 554 (0.12784 0.29507 0)
# Probe 555 (0.1197 0.25478 0)
# Probe 556 (0.13629 0.33485 0)
# Probe 557 (0.66959 0.23168 0)
# Probe 558 (0.66078 0.21449 0)
# Probe 559 (0.43908 0.48148 0)
# Probe 560 (0.44218 0.50286 0)
# Probe 561 (0.49702 0.42244 0)
# Probe 562 (0.84761 0.54846 0)
# Probe 563 (0.87416 0.52106 0)
# Probe 564 (0.20985 0.35483 0)
# Probe 565 (0.24374 0.36616 0)
# Probe 566 (0.61965 0.21186 0)
# Probe 567 (0.78676 0.11825 0)
# Probe 568 (0.82257 0.11948 0)
# Probe 569 (0.70491 0.44594 0)
# Probe 570 (0.71501 0.43493 0)
# Probe 571 (0.56686 0.13114 0)
# Probe 572 (0.12068 0.43804 0)
# Probe 573 (0.1726 0.76309 0)
# Probe 574 (0.14111 0.79245 0)
# Probe 575 (0.182 0.80768 0)
# Probe 576 (0.14811 0.83676 0)
# Probe 577 (0.19183 0.85152 0)
# Probe 578 (0.22585 0.82295 0)
# Probe 579 (0.23514 0.86754 0)
# Probe 580 (0.26926 0.83814 0)
# Probe 581 (0.27843 0.88221 0)
# Probe 582 (0.31218 0.853 0)
# Probe 583 (0.74307 0.35359 0)
# Probe 584 (0.41341 0.31507 0)
# Probe 585 (0.39272 0.32646 0)
# Probe 586 (0.65198 0.47368 0)
# Probe 587 (0.67453 0.51048 0)
# Probe 588 (0.15116 0.2278 0)
# Probe 589 (0.88105 0.65135 0)
# Probe 590 (0.60652 0.70875 0)
# Probe 591 (0.69562 0.24618 0)
# Probe 592 (0.7131 0.24807 0)
# Probe 593 (0.84777 0.78596 0)
# Probe 594 (0.62178 0.55594 0)
# Probe 595 (0.60467 0.56877 0)
# Probe 596 (0.51319 0.10294 0)
# Probe 597 (0.11871 0.66032 0)
# Probe 598 (0.68233 0.67729 0)
# Probe 599 (0.72943 0.39193 0)
# Probe 600 (0.46289 0.51046 0)
# Probe 601 (0.09997 0.32122 0)
# Probe 602 (0.43738 0.46112 0)
# Probe 603 (0.72127 0.8539 0)
# Probe 604 (0.72865 0.8938 0)
# Probe 605 (0.69029 0.88041 0)
# Probe 606 (0.56667 0.22558 0)
# Probe 607 (0.80225 0.602 0)
# Probe 608 (0.11409 0.39964 0)
# Probe 609 (0.72516 0.08842 0)
# Probe 610 (0.8375 0.15595 0)
# Probe 611 (0.85981 0.12231 0)
# Probe 612 (0.87605 0.16382 0)
# Probe 613 (0.58943 0.55788 0)
# Probe 614 (0.85599 0.45895 0)
# Probe 615 (0.88842 0.4693 0)
# Probe 616 (0.91781 0.44166 0)
# Probe 617 (0.32306 0.89434 0)
# Probe 618 (0.35482 0.86612 0)
# Probe 619 (0.11219 0.21331 0)
# Probe 620 (0.14502 0.18452 0)
# Probe 621 (0.80121 0.88082 0)
# Probe 622 (0.83245 0.85212 0)
# Probe 623 (0.08113 0.68907 0)
# Probe 624 (0.10339 0.82271 0)
# Probe 625 (0.73897 0.37985 0)
# Probe 626 (0.80312 0.52997 0)
# Probe 627 (0.41711 0.35366 0)
# Probe 628 (0.70248 0.26232 0)
# Probe 629 (0.71835 0.26359 0)
# Probe 630 (0.74153 0.27744 0)
# Probe 631 (0.43177 0.30538 0)
# Probe 632 (0.11672 0.87199 0)
# Probe 633 (0.55347 0.23394 0)
# Probe 634 (0.5385 0.22814 0)
# Probe 635 (0.48951 0.12131 0)
# Probe 636 (0.51013 0.42825 0)
# Probe 637 (0.42429 0.49467 0)
# Probe 638 (0.90811 0.72466 0)
# Probe 639 (0.51185 0.44237 0)
# Probe 640 (0.73874 0.33913 0)
# Probe 641 (0.89037 0.79452 0)
# Probe 642 (0.42451 0.51708 0)
# Probe 643 (0.29747 0.9231 0)
# Probe 644 (0.7309 0.43757 0)
# Probe 645 (0.75724 0.27889 0)
# Probe 646 (0.62292 0.57447 0)
# Probe 647 (0.6527 0.22805 0)
# Probe 648 (0.72954 0.34926 0)
# Probe 649 (0.63862 0.18628 0)
# Probe 650 (0.84337 0.89317 0)
# Probe 651 (0.8772 0.86517 0)
# Probe 652 (0.08099 0.42449 0)
# Probe 653 (0.73174 0.31762 0)
# Probe 654 (0.66943 0.19816 0)
# Probe 655 (0.57112 0.09933 0)
# Probe 656 (0.64457 0.21518 0)
# Probe 657 (0.60614 0.22064 0)
# Probe 658 (0.59146 0.21358 0)
# Probe 659 (0.60785 0.59012 0)
# Probe 660 (0.54056 0.24509 0)
# Probe 661 (0.52634 0.23902 0)
# Probe 662 (0.80294 0.08022 0)
# Probe 663 (0.10481 0.16962 0)
# Probe 664 (0.13838 0.14075 0)
# Probe 665 (0.17977 0.15619 0)
# Probe 666 (0.09575 0.12583 0)
# Probe 667 (0.1726 0.11416 0)
# Probe 668 (0.21465 0.12949 0)
# Probe 669 (0.71113 0.27572 0)
# Probe 670 (0.68044 0.24617 0)
# Probe 671 (0.72986 0.2513 0)
# Probe 672 (0.81402 0.55344 0)
# Probe 673 (0.39635 0.28673 0)
# Probe 674 (0.43601 0.26158 0)
# Probe 675 (0.46139 0.26339 0)
# Probe 676 (0.52709 0.25421 0)
# Probe 677 (0.51417 0.24894 0)
# Probe 678 (0.5159 0.26317 0)
# Probe 679 (0.50272 0.25902 0)
# Probe 680 (0.49952 0.24292 0)
# Probe 681 (0.50595 0.27502 0)
# Probe 682 (0.4912 0.26827 0)
# Probe 683 (0.49312 0.28481 0)
# Probe 684 (0.48014 0.22094 0)
# Probe 685 (0.63789 0.22718 0)
# Probe 686 (0.27505 0.34385 0)
# Probe 687 (0.19811 0.90312 0)
# Probe 688 (0.92152 0.48241 0)
# Probe 689 (0.73118 0.36448 0)
# Probe 690 (0.56507 0.23985 0)
# Probe 691 (0.47802 0.27674 0)
# Probe 692 (0.48052 0.29494 0)
# Probe 693 (0.46403 0.28692 0)
# Probe 694 (0.49419 0.30027 0)
# Probe 695 (0.48434 0.31059 0)
# Probe 696 (0.50559 0.29245 0)
# Probe 697 (0.64103 0.1388 0)
# Probe 698 (0.61394 0.13822 0)
# Probe 699 (0.522 0.22374 0)
# Probe 700 (0.74889 0.22569 0)
# Probe 701 (0.4842 0.41342 0)
# Probe 702 (0.4938 0.40187 0)
# Probe 703 (0.49104 0.38886 0)
# Probe 704 (0.59306 0.23116 0)
# Probe 705 (0.69151 0.45528 0)
# Probe 706 (0.67525 0.45405 0)
# Probe 707 (0.69152 0.44037 0)
# Probe 708 (0.66934 0.46322 0)
# Probe 709 (0.21763 0.38997 0)
# Probe 710 (0.25124 0.39849 0)
# Probe 711 (0.76013 0.45291 0)
# Probe 712 (0.50337 0.4555 0)
# Probe 713 (0.22355 0.17631 0)
# Probe 714 (0.25708 0.14514 0)
# Probe 715 (0.24959 0.10279 0)
# Probe 716 (0.28899 0.11964 0)
# Probe 717 (0.2965 0.15853 0)
# Probe 718 (0.32673 0.13568 0)
# Probe 719 (0.3307 0.17181 0)
# Probe 720 (0.36087 0.14984 0)
# Probe 721 (0.35748 0.11309 0)
# Probe 722 (0.3911 0.12834 0)
# Probe 723 (0.38662 0.08891 0)
# Probe 724 (0.42391 0.10663 0)
# Probe 725 (0.41326 0.06469 0)
# Probe 726 (0.39286 0.16795 0)
# Probe 727 (0.61373 0.50038 0)
# Probe 728 (0.60819 0.48574 0)
# Probe 729 (0.59508 0.48126 0)
# Probe 730 (0.60626 0.47248 0)
# Probe 731 (0.6188 0.47726 0)
# Probe 732 (0.59479 0.46814 0)
# Probe 733 (0.58284 0.4747 0)
# Probe 734 (0.95932 0.42208 0)
# Probe 735 (0.92498 0.5634 0)
# Probe 736 (0.93182 0.60377 0)
# Probe 737 (0.26063 0.79321 0)
# Probe 738 (0.34618 0.82356 0)
# Probe 739 (0.47971 0.38161 0)
# Probe 740 (0.49276 0.37546 0)
# Probe 741 (0.48199 0.36743 0)
# Probe 742 (0.28394 0.07673 0)
# Probe 743 (0.24587 0.05706 0)
# Probe 744 (0.37416 0.04315 0)
# Probe 745 (0.52575 0.04059 0)
# Probe 746 (0.9013 0.12701 0)
# Probe 747 (0.91727 0.16977 0)
# Probe 748 (0.88985 0.20053 0)
# Probe 749 (0.92448 0.09172 0)
# Probe 750 (0.53309 0.46954 0)
# Probe 751 (0.5331 0.45482 0)
# Probe 752 (0.54553 0.46153 0)
# Probe 753 (0.55827 0.46737 0)
# Probe 754 (0.5619 0.48142 0)
# Probe 755 (0.78155 0.36389 0)
# Probe 756 (0.78666 0.38505 0)
# Probe 757 (0.38992 0.44343 0)
# Probe 758 (0.40811 0.427 0)
# Probe 759 (0.4045 0.40354 0)
# Probe 760 (0.38229 0.39335 0)
# Probe 761 (0.40216 0.3818 0)
# Probe 762 (0.53774 0.58029 0)
# Probe 763 (0.53438 0.5534 0)
# Probe 764 (0.5101 0.5463 0)
# Probe 765 (0.52701 0.53209 0)
# Probe 766 (0.55661 0.56609 0)
# Probe 767 (0.18247 0.38373 0)
# Probe 768 (0.65771 0.241 0)
# Probe 769 (0.37007 0.31512 0)
# Probe 770 (0.67644 0.55824 0)
# Probe 771 (0.66872 0.53763 0)
# Probe 772 (0.88851 0.91285 0)
# Probe 773 (0.9223 0.87345 0)
# Probe 774 (0.48859 0.56102 0)
# Probe 775 (0.48856 0.53514 0)
# Probe 776 (0.64171 0.48301 0)
# Probe 777 (0.64015 0.46883 0)
# Probe 778 (0.82327 0.0401 0)
# Probe 779 (0.72178 0.04144 0)
# Probe 780 (0.65061 0.45947 0)
# Probe 781 (0.63058 0.46499 0)
# Probe 782 (0.41611 0.45034 0)
# Probe 783 (0.92212 0.39786 0)
# Probe 784 (0.91865 0.35535 0)
# Probe 785 (0.95588 0.33111 0)
# Probe 786 (0.91529 0.31397 0)
# Probe 787 (0.95376 0.27764 0)
# Probe 788 (0.90966 0.27251 0)
# Probe 789 (0.88054 0.29967 0)
# Probe 790 (0.88244 0.33668 0)
# Probe 791 (0.70188 0.43298 0)
# Probe 792 (0.71045 0.42299 0)
# Probe 793 (0.72499 0.42015 0)
# Probe 794 (0.71766 0.40987 0)
# Probe 795 (0.44771 0.27942 0)
# Probe 796 (0.75611 0.37954 0)
# Probe 797 (0.47661 0.33313 0)
# Probe 798 (0.49045 0.33786 0)
# Probe 799 (0.48844 0.35355 0)
# Probe 800 (0.72573 0.3778 0)
# Probe 801 (0.72323 0.30545 0)
# Probe 802 (0.48311 0.08816 0)
# Probe 803 (0.62249 0.22871 0)
# Probe 804 (0.71286 0.52176 0)
# Probe 805 (0.48724 0.32418 0)
# Probe 806 (0.73312 0.5081 0)
# Probe 807 (0.71584 0.29055 0)
# Probe 808 (0.57349 0.45204 0)
# Probe 809 (0.57588 0.46248 0)
# Probe 810 (0.26378 0.30876 0)
# Probe 811 (0.60763 0.07901 0)
# Probe 812 (0.75734 0.68404 0)
# Probe 813 (0.74993 0.64986 0)
# Probe 814 (0.72007 0.67438 0)
# Probe 815 (0.7734 0.6222 0)
# Probe 816 (0.73936 0.62084 0)
# Probe 817 (0.54493 0.43719 0)
# Probe 818 (0.54427 0.44862 0)
# Probe 819 (0.53321 0.44157 0)
# Probe 820 (0.50112 0.34411 0)
# Probe 821 (0.52222 0.41431 0)
# Probe 822 (0.53637 0.43043 0)
# Probe 823 (0.50438 0.37623 0)
# Probe 824 (0.88455 0.37734 0)
# Probe 825 (0.60431 0.45999 0)
# Probe 826 (0.56369 0.44791 0)
# Probe 827 (0.77949 0.30514 0)
# Probe 828 (0.51183 0.39616 0)
# Probe 829 (0.66758 0.44361 0)
# Probe 830 (0.24457 0.55984 0)
# Probe 831 (0.2802 0.57447 0)
# Probe 832 (0.28648 0.61068 0)
# Probe 833 (0.27631 0.53489 0)
# Probe 834 (0.31797 0.58552 0)
# Probe 835 (0.32304 0.62434 0)
# Probe 836 (0.29441 0.65081 0)
# Probe 837 (0.35711 0.63829 0)
# Probe 838 (0.36875 0.67089 0)
# Probe 839 (0.38869 0.64728 0)
# Probe 840 (0.40284 0.6749 0)
# Probe 841 (0.41801 0.64769 0)
# Probe 842 (0.34777 0.6064 0)
# Probe 843 (0.47402 0.72496 0)
# Probe 844 (0.50087 0.70299 0)
# Probe 845 (0.53335 0.71427 0)
# Probe 846 (0.5271 0.68079 0)
# Probe 847 (0.46942 0.69161 0)
# Probe 848 (0.6366 0.24512 0)
# Probe 849 (0.75276 0.11792 0)
# Probe 850 (0.69634 0.41416 0)
# Probe 851 (0.68315 0.4317 0)
# Probe 852 (0.52975 0.27728 0)
# Probe 853 (0.23783 0.52031 0)
# Probe 854 (0.26548 0.49468 0)
# Probe 855 (0.26017 0.46102 0)
# Probe 856 (0.2968 0.47265 0)
# Probe 857 (0.2972 0.50566 0)
# Probe 858 (0.22796 0.44674 0)
# Probe 859 (0.03706 0.32551 0)
# Probe 860 (0.71198 0.38718 0)
# Probe 861 (0.70253 0.40545 0)
# Probe 862 (0.7149 0.32384 0)
# Probe 863 (0.84011 0.51143 0)
# Probe 864 (0.54579 0.26341 0)
# Probe 865 (0.51222 0.30344 0)
# Probe 866 (0.50518 0.3236 0)
# Probe 867 (0.6929 0.51966 0)
# Probe 868 (0.67454 0.25997 0)
# Probe 869 (0.69011 0.27702 0)
# Probe 870 (0.61537 0.24096 0)
# Probe 871 (0.37343 0.34033 0)
# Probe 872 (0.54123 0.74888 0)
# Probe 873 (0.57184 0.72307 0)
# Probe 874 (0.57649 0.75979 0)
# Probe 875 (0.69654 0.28537 0)
# Probe 876 (0.08018 0.24039 0)
# Probe 877 (0.68818 0.25855 0)
# Probe 878 (0.70911 0.30306 0)
# Probe 879 (0.95343 0.72681 0)
# Probe 880 (0.95886 0.77874 0)
# Probe 881 (0.39537 0.34867 0)
# Probe 882 (0.27871 0.37844 0)
# Probe 883 (0.28373 0.40869 0)
# Probe 884 (0.56366 0.25203 0)
# Probe 885 (0.4207 0.3892 0)
# Probe 886 (0.58207 0.49037 0)
# Probe 887 (0.46707 0.30807 0)
# Probe 888 (0.04362 0.52284 0)
# Probe 889 (0.08686 0.49932 0)
# Probe 890 (0.09314 0.54814 0)
# Probe 891 (0.04517 0.57139 0)
# Probe 892 (0.08325 0.59531 0)
# Probe 893 (0.51003 0.41582 0)
# Probe 894 (0.72255 0.96068 0)
# Probe 895 (0.62532 0.9582 0)
# Probe 896 (0.65335 0.9104 0)
# Probe 897 (0.6036 0.91682 0)
# Probe 898 (0.61848 0.87511 0)
# Probe 899 (0.57584 0.95809 0)
# Probe 900 (0.5523 0.91879 0)
# Probe 901 (0.50421 0.91764 0)
# Probe 902 (0.57542 0.88202 0)
# Probe 903 (0.47821 0.95739 0)
# Probe 904 (0.45803 0.91523 0)
# Probe 905 (0.48252 0.87581 0)
# Probe 906 (0.43835 0.87531 0)
# Probe 907 (0.41063 0.9143 0)
# Probe 908 (0.32254 0.96121 0)
# Probe 909 (0.52238 0.43313 0)
# Probe 910 (0.77357 0.95427 0)
# Probe 911 (0.42868 0.95641 0)
# Probe 912 (0.36724 0.9095 0)
# Probe 913 (0.38677 0.83692 0)
# Probe 914 (0.59584 0.1182 0)
# Probe 915 (0.43131 0.54089 0)
# Probe 916 (0.74131 0.42467 0)
# Probe 917 (0.73065 0.70921 0)
# Probe 918 (0.30833 0.55315 0)
# Probe 919 (0.04834 0.12264 0)
# Probe 920 (0.50082 0.35635 0)
# Probe 921 (0.1267 0.04861 0)
# Probe 922 (0.17471 0.955 0)
# Probe 923 (0.149 0.91336 0)
# Probe 924 (0.04878 0.82301 0)
# Probe 925 (0.04112 0.72206 0)
# Probe 926 (0.91635 0.52135 0)
# Probe 927 (0.55656 0.69205 0)
# Probe 928 (0.04782 0.92124 0)
# Probe 929 (0.87405 0.9577 0)
# Probe 930 (0.42427 0.4106 0)
# Probe 931 (0.65429 0.55145 0)
# Probe 932 (0.87451 0.26359 0)
# Probe 933 (0.71944 0.64045 0)
# Probe 934 (0.73943 0.45352 0)
# Probe 935 (0.32232 0.09467 0)
# Probe 936 (0.15195 0.63527 0)
# Probe 937 (0.30283 0.8108 0)
# Probe 938 (0.58581 0.60065 0)
# Probe 939 (0.57798 0.23377 0)
# Probe 940 (0.08587 0.74541 0)
# Probe 941 (0.60604 0.16217 0)
# Probe 942 (0.49704 0.31511 0)
# Probe 943 (0.25756 0.63673 0)
# Probe 944 (0.71559 0.4966 0)
# Probe 945 (0.1311 0.09826 0)
# Probe 946 (0.7155 0.81289 0)
# Probe 947 (0.58703 0.54074 0)
# Probe 948 (0.41827 0.47211 0)
# Probe 949 (0.4974 0.6709 0)
# Probe 950 (0.47221 0.65981 0)
# Probe 951 (0.2153 0.77898 0)
# Probe 952 (0.76651 0.0839 0)
# Probe 953 (0.32557 0.49527 0)
# Probe 954 (0.71852 0.3446 0)
# Probe 955 (0.60545 0.74247 0)
# Probe 956 (0.69721 0.70586 0)
# Probe 957 (0.33645 0.24198 0)
# Probe 958 (0.13055 0.51701 0)
# Probe 959 (0.24809 0.91437 0)
# Probe 960 (0.76887 0.91039 0)
# Probe 961 (0.59428 0.24389 0)
# Probe 962 (0.29538 0.31496 0)
# Probe 963 (0.14712 0.59498 0)
# Probe 964 (0.42158 0.80753 0)
# Probe 965 (0.48876 0.83362 0)
# Probe 966 (0.59334 0.45744 0)
# Probe 967 (0.9233 0.0441 0)
# Probe 968 (0.27964 0.7566 0)
# Probe 969 (0.4481 0.29706 0)
# Probe 970 (0.28907 0.43808 0)
# Probe 971 (0.96015 0.18097 0)