# Probe 0 (0 0 0)
# Probe 1 (1 0 0)
# Probe 2 (1 1 0)
# Probe 3 (0 1 0)
# Probe 4 (0.48 0.51 0)
# Probe 5 (0.38 0.41 0)
# Probe 6 (0.28 0.51 0)
# Probe 7 (0.38 0.61 0)
# Probe 8 (0.05 0 0)
# Probe 9 (0.1 0 0)
# Probe 10 (0.15 0 0)
# Probe 11 (0.2 0 0)
# Probe 12 (0.25 0 0)
# Probe 13 (0.3 0 0)
# Probe 14 (0.35 0 0)
# Probe 15 (0.4 0 0)
# Probe 16 (0.45 0 0)
# Probe 17 (0.5 0 0)
# Probe 18 (0.55 0 0)
# Probe 19 (0.6 0 0)
# Probe 20 (0.65 0 0)
# Probe 21 (0.7 0 0)
# Probe 22 (0.75 0 0)
# Probe 23 (0.8 0 0)
# Probe 24 (0.85 0 0)
# Probe 25 (0.9 0 0)
# Probe 26 (0.95 0 0)
# Probe 27 (1 0.05 0)
# Probe 28 (1 0.1 0)
# Probe 29 (1 0.15 0)
# Probe 30 (1 0.2 0)
# Probe 31 (1 0.25 0)
# Probe 32 (1 0.3 0)
# Probe 33 (1 0.35 0)
# Probe 34 (1 0.4 0)
# Probe 35 (1 0.45 0)
# Probe 36 (1 0.5 0)
# Probe 37 (1 0.55 0)
# Probe 38 (1 0.6 0)
# Probe 39 (1 0.65 0)
# Probe 40 (1 0.7 0)
# Probe 41 (1 0.75 0)
# Probe 42 (1 0.8 0)
# Probe 43 (1 0.85 0)
# Probe 44 (1 0.9 0)
# Probe 45 (1 0.95 0)
# Probe 46 (0.95 1 0)
# Probe 47 (0.9 1 0)
# Probe 48 (0.85 1 0)
# Probe 49 (0.8 1 0)
# Probe 50 (0.75 1 0)
# Probe 51 (0.7 1 0)
# Probe 52 (0.65 1 0)
# Probe 53 (0.6 1 0)
# Probe 54 (0.55 1 0)
# Probe 55 (0.5 1 0)
# Probe 56 (0.45 1 0)
# Probe 57 (0.4 1 0)
# Probe 58 (0.35 1 0)
# Probe 59 (0.3 1 0)
# Probe 60 (0.25 1 0)
# Probe 61 (0.2 1 0)
# Probe 62 (0.15 1 0)
# Probe 63 (0.1 1 0)
# Probe 64 (0.05 1 0)
# Probe 65 (0 0.95 0)
# Probe 66 (0 0.9 0)
# Probe 67 (0 0.85 0)
# Probe 68 (0 0.8 0)
# Probe 69 (0 0.75 0)
# Probe 70 (0 0.7 0)
# Probe 71 (0 0.65 0)
# Probe 72 (0 0.6 0)
# Probe 73 (0 0.55 0)
# Probe 74 (0 0.5 0)
# Probe 75 (0 0.45 0)
# Probe 76 (0 0.4 0)
# Probe 77 (0 0.35 0)
# Probe 78 (0 0.3 0)
# Probe 79 (0 0.25 0)
# Probe 80 (0 0.2 0)
# Probe 81 (0 0.15 0)
# Probe 82 (0 0.1 0)
# Probe 83 (0 0.05 0)
# Probe 84 (0.47952 0.5002 0)
# Probe 85 (0.47808 0.49049 0)
# Probe 86 (0.47569 0.48097 0)
# Probe 87 (0.47239 0.47173 0)
# Probe 88 (0.46819 0.46286 0)
# Probe 89 (0.46315 0.45444 0)
# Probe 90 (0.4573 0.44656 0)
# Probe 91 (0.45071 0.43929 0)
# Probe 92 (0.44344 0.4327 0)
# Probe 93 (0.43556 0.42685 0)
# Probe 94 (0.42714 0.42181 0)
# Probe 95 (0.41827 0.41761 0)
# Probe 96 (0.40903 0.41431 0)
# Probe 97 (0.39951 0.41192 0)
# Probe 98 (0.3898 0.41048 0)
# Probe 99 (0.3702 0.41048 0)
# Probe 100 (0.36049 0.41192 0)
# Probe 101 (0.35097 0.41431 0)
# Probe 102 (0.34173 0.41761 0)
# Probe 103 (0.33286 0.42181 0)
# Probe 104 (0.32444 0.42685 0)
# Probe 105 (0.31656 0.4327 0)
# Probe 106 (0.30929 0.43929 0)
# Probe 107 (0.3027 0.44656 0)
# Probe 108 (0.29685 0.45444 0)
# Probe 109 (0.29181 0.46286 0)
# Probe 110 (0.28761 0.47173 0)
# Probe 111 (0.28431 0.48097 0)
# Probe 112 (0.28192 0.49049 0)
# Probe 113 (0.28048 0.5002 0)
# Probe 114 (0.28048 0.5198 0)
# Probe 115 (0.28192 0.52951 0)
# Probe 116 (0.28431 0.53903 0)
# Probe 117 (0.28761 0.54827 0)
# Probe 118 (0.29181 0.55714 0)
# Probe 119 (0.29685 0.56556 0)
# Probe 120 (0.3027 0.57344 0)
# Probe 121 (0.30929 0.58071 0)
# Probe 122 (0.31656 0.5873 0)
# Probe 123 (0.32444 0.59315 0)
# Probe 124 (0.33286 0.59819 0)
# Probe 125 (0.34173 0.60239 0)
# Probe 126 (0.35097 0.60569 0)
# Probe 127 (0.36049 0.60808 0)
# Probe 128 (0.3702 0.60952 0)
# Probe 129 (0.3898 0.60952 0)
# Probe 130 (0.39951 0.60808 0)
# Probe 131 (0.40903 0.60569 0)
# Probe 132 (0.41827 0.60239 0)
# Probe 133 (0.42714 0.59819 0)
# Probe 134 (0.43556 0.59315 0)
# Probe 135 (0.44344 0.5873 0)
# Probe 136 (0.45071 0.58071 0)
# Probe 137 (0.4573 0.57344 0)
# Probe 138 (0.46315 0.56556 0)
# Probe 139 (0.46819 0.55714 0)
# Probe 140 (0.47239 0.54827 0)
# Probe 141 (0.47569 0.53903 0)
# Probe 142 (0.47808 0.52951 0)
# Probe 143 (0.47952 0.5198 0)
# Probe 144 (0.96268 0.32513 0)
# Probe 145 (0.9567 0.675 0)
# Probe 146 (0.67391 0.04272 0)
# Probe 147 (0.67273 0.95766 0)
# Probe 148 (0.9567 0.475 0)
# Probe 149 (0.2236 0.04217 0)
# Probe 150 (0.52475 0.04047 0)
# Probe 151 (0.22601 0.95828 0)
# Probe 152 (0.51904 0.95389 0)
# Probe 153 (0.37723 0.04386 0)
# Probe 154 (0.03828 0.27358 0)
# Probe 155 (0.37567 0.95822 0)
# Probe 156 (0.04163 0.72699 0)
# Probe 157 (0.0433 0.425 0)
# Probe 158 (0.04034 0.57982 0)
# Probe 159 (0.27148 0.51512 0)
# Probe 160 (0.82761 0.95938 0)
# Probe 161 (0.82445 0.04042 0)
# Probe 162 (0.96068 0.82719 0)
# Probe 163 (0.9575 0.17619 0)
# Probe 164 (0.04126 0.82326 0)
# Probe 165 (0.04045 0.17253 0)
# Probe 166 (0.95225 0.57643 0)
# Probe 167 (0.12552 0.95954 0)
# Probe 168 (0.12619 0.04041 0)
# Probe 169 (0.92496 0.95253 0)
# Probe 170 (0.92411 0.04413 0)
# Probe 171 (0.04813 0.9207 0)
# Probe 172 (0.0433 0.075 0)
# Probe 173 (0.0412 0.77417 0)
# Probe 174 (0.08108 0.75036 0)
# Probe 175 (0.08138 0.70743 0)
# Probe 176 (0.11682 0.72968 0)
# Probe 177 (0.28727 0.56572 0)
# Probe 178 (0.11831 0.69207 0)
# Probe 179 (0.14843 0.71116 0)
# Probe 180 (0.15026 0.67773 0)
# Probe 181 (0.17787 0.69391 0)
# Probe 182 (0.30678 0.59047 0)
# Probe 183 (0.17744 0.72574 0)
# Probe 184 (0.20719 0.70684 0)
# Probe 185 (0.17855 0.66415 0)
# Probe 186 (0.2045 0.73974 0)
# Probe 187 (0.23118 0.72516 0)
# Probe 188 (0.33337 0.60808 0)
# Probe 189 (0.23014 0.75494 0)
# Probe 190 (0.25527 0.74025 0)
# Probe 191 (0.27822 0.54737 0)
# Probe 192 (0.25543 0.76988 0)
# Probe 193 (0.28073 0.75503 0)
# Probe 194 (0.2558 0.71249 0)
# Probe 195 (0.28181 0.78554 0)
# Probe 196 (0.30654 0.76886 0)
# Probe 197 (0.3641 0.61721 0)
# Probe 198 (0.20339 0.76953 0)
# Probe 199 (0.30593 0.74089 0)
# Probe 200 (0.32993 0.75339 0)
# Probe 201 (0.33051 0.72763 0)
# Probe 202 (0.35409 0.74009 0)
# Probe 203 (0.39573 0.61746 0)
# Probe 204 (0.35318 0.77012 0)
# Probe 205 (0.37731 0.7523 0)
# Probe 206 (0.37897 0.77972 0)
# Probe 207 (0.40153 0.7644 0)
# Probe 208 (0.40074 0.73816 0)
# Probe 209 (0.42344 0.74947 0)
# Probe 210 (0.42119 0.72473 0)
# Probe 211 (0.44355 0.73521 0)
# Probe 212 (0.43692 0.60477 0)
# Probe 213 (0.44606 0.76065 0)
# Probe 214 (0.46657 0.74558 0)
# Probe 215 (0.46378 0.72094 0)
# Probe 216 (0.48665 0.73088 0)
# Probe 217 (0.48398 0.7068 0)
# Probe 218 (0.5057 0.71658 0)
# Probe 219 (0.50366 0.69247 0)
# Probe 220 (0.52445 0.70388 0)
# Probe 221 (0.52358 0.67752 0)
# Probe 222 (0.54502 0.68965 0)
# Probe 223 (0.54335 0.66301 0)
# Probe 224 (0.56591 0.6729 0)
# Probe 225 (0.56315 0.64881 0)
# Probe 226 (0.58515 0.66001 0)
# Probe 227 (0.58307 0.63423 0)
# Probe 228 (0.60604 0.64563 0)
# Probe 229 (0.60302 0.62002 0)
# Probe 230 (0.62722 0.62844 0)
# Probe 231 (0.61977 0.6003 0)
# Probe 232 (0.48721 0.5259 0)
# Probe 233 (0.62812 0.65735 0)
# Probe 234 (0.65023 0.61525 0)
# Probe 235 (0.64548 0.58555 0)
# Probe 236 (0.56669 0.70142 0)
# Probe 237 (0.50962 0.74129 0)
# Probe 238 (0.47712 0.55587 0)
# Probe 239 (0.67149 0.59699 0)
# Probe 240 (0.66841 0.56886 0)
# Probe 241 (0.64237 0.55695 0)
# Probe 242 (0.66455 0.54115 0)
# Probe 243 (0.6397 0.5303 0)
# Probe 244 (0.66072 0.51453 0)
# Probe 245 (0.48716 0.49445 0)
# Probe 246 (0.63655 0.50462 0)
# Probe 247 (0.65692 0.48929 0)
# Probe 248 (0.63326 0.47901 0)
# Probe 249 (0.6547 0.46516 0)
# Probe 250 (0.62973 0.45386 0)
# Probe 251 (0.65208 0.43893 0)
# Probe 252 (0.62613 0.42781 0)
# Probe 253 (0.64758 0.41099 0)
# Probe 254 (0.62244 0.40047 0)
# Probe 255 (0.64391 0.38337 0)
# Probe 256 (0.61836 0.37171 0)
# Probe 257 (0.46677 0.44563 0)
# Probe 258 (0.64104 0.35447 0)
# Probe 259 (0.61363 0.3422 0)
# Probe 260 (0.67453 0.42455 0)
# Probe 261 (0.68189 0.49827 0)
# Probe 262 (0.63732 0.32476 0)
# Probe 263 (0.66618 0.33757 0)
# Probe 264 (0.60881 0.3129 0)
# Probe 265 (0.58496 0.33147 0)
# Probe 266 (0.58049 0.30218 0)
# Probe 267 (0.55618 0.3238 0)
# Probe 268 (0.43774 0.41604 0)
# Probe 269 (0.55289 0.29186 0)
# Probe 270 (0.53104 0.31006 0)
# Probe 271 (0.52663 0.28199 0)
# Probe 272 (0.50534 0.29916 0)
# Probe 273 (0.45982 0.58261 0)
# Probe 274 (0.50095 0.27168 0)
# Probe 275 (0.4797 0.28877 0)
# Probe 276 (0.40604 0.40652 0)
# Probe 277 (0.66075 0.30457 0)
# Probe 278 (0.69574 0.58006 0)
# Probe 279 (0.69843 0.60982 0)
# Probe 280 (0.47526 0.26143 0)
# Probe 281 (0.45398 0.27858 0)
# Probe 282 (0.57567 0.27268 0)
# Probe 283 (0.69326 0.32043 0)
# Probe 284 (0.68907 0.28389 0)
# Probe 285 (0.44944 0.25138 0)
# Probe 286 (0.42734 0.26876 0)
# Probe 287 (0.37468 0.40175 0)
# Probe 288 (0.6021 0.41856 0)
# Probe 289 (0.61675 0.51959 0)
# Probe 290 (0.58158 0.61143 0)
# Probe 291 (0.42347 0.24119 0)
# Probe 292 (0.40157 0.25858 0)
# Probe 293 (0.48207 0.47356 0)
# Probe 294 (0.7241 0.5919 0)
# Probe 295 (0.7259 0.62456 0)
# Probe 296 (0.41651 0.61204 0)
# Probe 297 (0.45281 0.42996 0)
# Probe 298 (0.53202 0.33704 0)
# Probe 299 (0.72197 0.29868 0)
# Probe 300 (0.39701 0.23026 0)
# Probe 301 (0.37327 0.24911 0)
# Probe 302 (0.36904 0.21873 0)
# Probe 303 (0.34525 0.23814 0)
# Probe 304 (0.34967 0.26827 0)
# Probe 305 (0.34349 0.40796 0)
# Probe 306 (0.32216 0.2576 0)
# Probe 307 (0.32696 0.28701 0)
# Probe 308 (0.29889 0.27784 0)
# Probe 309 (0.29151 0.44285 0)
# Probe 310 (0.31562 0.42295 0)
# Probe 311 (0.29072 0.24889 0)
# Probe 312 (0.27009 0.26885 0)
# Probe 313 (0.27608 0.29797 0)
# Probe 314 (0.28184 0.46336 0)
# Probe 315 (0.27449 0.48357 0)
# Probe 316 (0.24852 0.28862 0)
# Probe 317 (0.25466 0.31699 0)
# Probe 318 (0.23982 0.26 0)
# Probe 319 (0.71749 0.26147 0)
# Probe 320 (0.49797 0.24003 0)
# Probe 321 (0.22703 0.30856 0)
# Probe 322 (0.23309 0.33619 0)
# Probe 323 (0.42253 0.21256 0)
# Probe 324 (0.40102 0.71394 0)
# Probe 325 (0.48418 0.31476 0)
# Probe 326 (0.43343 0.29532 0)
# Probe 327 (0.20553 0.32766 0)
# Probe 328 (0.21056 0.35471 0)
# Probe 329 (0.53958 0.64005 0)
# Probe 330 (0.41887 0.702 0)
# Probe 331 (0.7521 0.27597 0)
# Probe 332 (0.75598 0.31429 0)
# Probe 333 (0.75352 0.60492 0)
# Probe 334 (0.75734 0.63847 0)
# Probe 335 (0.50168 0.66829 0)
# Probe 336 (0.7493 0.57131 0)
# Probe 337 (0.68105 0.2468 0)
# Probe 338 (0.71273 0.22394 0)
# Probe 339 (0.28137 0.3256 0)
# Probe 340 (0.728 0.65848 0)
# Probe 341 (0.76069 0.67311 0)
# Probe 342 (0.73026 0.69342 0)
# Probe 343 (0.76395 0.70888 0)
# Probe 344 (0.73244 0.72993 0)
# Probe 345 (0.76748 0.7461 0)
# Probe 346 (0.73601 0.76742 0)
# Probe 347 (0.18285 0.34856 0)
# Probe 348 (0.18895 0.3753 0)
# Probe 349 (0.23559 0.36447 0)
# Probe 350 (0.40306 0.79279 0)
# Probe 351 (0.40113 0.69227 0)
# Probe 352 (0.6762 0.2093 0)
# Probe 353 (0.41697 0.68165 0)
# Probe 354 (0.60988 0.47017 0)
# Probe 355 (0.34002 0.20661 0)
# Probe 356 (0.78321 0.6178 0)
# Probe 357 (0.70184 0.75033 0)
# Probe 358 (0.38005 0.80918 0)
# Probe 359 (0.40586 0.82373 0)
# Probe 360 (0.17663 0.31799 0)
# Probe 361 (0.77111 0.78477 0)
# Probe 362 (0.70441 0.78836 0)
# Probe 363 (0.67067 0.77171 0)
# Probe 364 (0.78772 0.29134 0)
# Probe 365 (0.79102 0.33033 0)
# Probe 366 (0.78312 0.25203 0)
# Probe 367 (0.15333 0.64715 0)
# Probe 368 (0.17993 0.63479 0)
# Probe 369 (0.15662 0.61793 0)
# Probe 370 (0.18165 0.60647 0)
# Probe 371 (0.20335 0.62213 0)
# Probe 372 (0.15935 0.5904 0)
# Probe 373 (0.18744 0.57953 0)
# Probe 374 (0.16199 0.56333 0)
# Probe 375 (0.19028 0.55194 0)
# Probe 376 (0.16492 0.53725 0)
# Probe 377 (0.18783 0.52616 0)
# Probe 378 (0.16635 0.51144 0)
# Probe 379 (0.18937 0.50073 0)
# Probe 380 (0.168 0.48434 0)
# Probe 381 (0.4696 0.7714 0)
# Probe 382 (0.79181 0.68817 0)
# Probe 383 (0.19156 0.47529 0)
# Probe 384 (0.80403 0.76206 0)
# Probe 385 (0.2067 0.56622 0)
# Probe 386 (0.15261 0.34092 0)
# Probe 387 (0.14341 0.49682 0)
# Probe 388 (0.1452 0.46701 0)
# Probe 389 (0.70704 0.18548 0)
# Probe 390 (0.36565 0.18629 0)
# Probe 391 (0.33358 0.17315 0)
# Probe 392 (0.67291 0.80888 0)
# Probe 393 (0.63937 0.79301 0)
# Probe 394 (0.70559 0.82747 0)
# Probe 395 (0.35274 0.29629 0)
# Probe 396 (0.64181 0.82956 0)
# Probe 397 (0.60828 0.81368 0)
# Probe 398 (0.40043 0.6724 0)
# Probe 399 (0.38482 0.68242 0)
# Probe 400 (0.80768 0.80354 0)
# Probe 401 (0.254 0.80085 0)
# Probe 402 (0.28306 0.81778 0)
# Probe 403 (0.82083 0.26792 0)
# Probe 404 (0.81668 0.22682 0)
# Probe 405 (0.41616 0.66325 0)
# Probe 406 (0.43177 0.67113 0)
# Probe 407 (0.13932 0.5481 0)
# Probe 408 (0.43038 0.6534 0)
# Probe 409 (0.67129 0.17059 0)
# Probe 410 (0.385 0.66441 0)
# Probe 411 (0.36981 0.673 0)
# Probe 412 (0.61092 0.85007 0)
# Probe 413 (0.5778 0.83355 0)
# Probe 414 (0.21011 0.51299 0)
# Probe 415 (0.75923 0.35274 0)
# Probe 416 (0.79416 0.36891 0)
# Probe 417 (0.2524 0.83443 0)
# Probe 418 (0.28436 0.85238 0)
# Probe 419 (0.76295 0.39084 0)
# Probe 420 (0.79726 0.40768 0)
# Probe 421 (0.82946 0.38529 0)
# Probe 422 (0.83219 0.42435 0)
# Probe 423 (0.79995 0.44645 0)
# Probe 424 (0.83464 0.46341 0)
# Probe 425 (0.37921 0.84052 0)
# Probe 426 (0.40854 0.85634 0)
# Probe 427 (0.6397 0.19484 0)
# Probe 428 (0.6347 0.15644 0)
# Probe 429 (0.60389 0.18078 0)
# Probe 430 (0.86579 0.40227 0)
# Probe 431 (0.11748 0.76642 0)
# Probe 432 (0.14563 0.30751 0)
# Probe 433 (0.44577 0.66085 0)
# Probe 434 (0.44428 0.64424 0)
# Probe 435 (0.12019 0.33082 0)
# Probe 436 (0.12924 0.36534 0)
# Probe 437 (0.12821 0.62833 0)
# Probe 438 (0.43842 0.8367 0)
# Probe 439 (0.44025 0.87254 0)
# Probe 440 (0.47173 0.85415 0)
# Probe 441 (0.59822 0.14213 0)
# Probe 442 (0.56756 0.16678 0)
# Probe 443 (0.84258 0.77877 0)
# Probe 444 (0.84701 0.82186 0)
# Probe 445 (0.36983 0.65634 0)
# Probe 446 (0.35546 0.6644 0)
# Probe 447 (0.63296 0.75351 0)
# Probe 448 (0.85418 0.24358 0)
# Probe 449 (0.84835 0.20036 0)
# Probe 450 (0.81004 0.18294 0)
# Probe 451 (0.3621 0.15137 0)
# Probe 452 (0.32853 0.13704 0)
# Probe 453 (0.29903 0.16042 0)
# Probe 454 (0.702 0.14525 0)
# Probe 455 (0.80205 0.48503 0)
# Probe 456 (0.83714 0.50227 0)
# Probe 457 (0.76837 0.46685 0)
# Probe 458 (0.11657 0.48158 0)
# Probe 459 (0.57549 0.79772 0)
# Probe 460 (0.86253 0.36243 0)
# Probe 461 (0.35637 0.64829 0)
# Probe 462 (0.34179 0.65587 0)
# Probe 463 (0.34192 0.67323 0)
# Probe 464 (0.32672 0.66406 0)
# Probe 465 (0.32772 0.64588 0)
# Probe 466 (0.31239 0.65474 0)
# Probe 467 (0.3125 0.63885 0)
# Probe 468 (0.29838 0.64589 0)
# Probe 469 (0.31192 0.67409 0)
# Probe 470 (0.29912 0.62972 0)
# Probe 471 (0.28445 0.63693 0)
# Probe 472 (0.28511 0.62013 0)
# Probe 473 (0.26983 0.62804 0)
# Probe 474 (0.26984 0.61164 0)
# Probe 475 (0.26892 0.64579 0)
# Probe 476 (0.84457 0.15567 0)
# Probe 477 (0.17096 0.28506 0)
# Probe 478 (0.13675 0.27427 0)
# Probe 479 (0.16545 0.24898 0)
# Probe 480 (0.12 0.44821 0)
# Probe 481 (0.33295 0.31318 0)
# Probe 482 (0.35609 0.32141 0)
# Probe 483 (0.3393 0.33589 0)
# Probe 484 (0.36 0.34534 0)
# Probe 485 (0.34292 0.35625 0)
# Probe 486 (0.37559 0.33048 0)
# Probe 487 (0.37984 0.35015 0)
# Probe 488 (0.39342 0.33902 0)
# Probe 489 (0.39563 0.35743 0)
# Probe 490 (0.40972 0.34588 0)
# Probe 491 (0.4118 0.3635 0)
# Probe 492 (0.42572 0.35236 0)
# Probe 493 (0.42761 0.36988 0)
# Probe 494 (0.44134 0.3603 0)
# Probe 495 (0.44269 0.37679 0)
# Probe 496 (0.456 0.36574 0)
# Probe 497 (0.45867 0.38353 0)
# Probe 498 (0.47181 0.37201 0)
# Probe 499 (0.47235 0.39228 0)
# Probe 500 (0.4878 0.38013 0)
# Probe 501 (0.48957 0.39732 0)
# Probe 502 (0.504 0.38681 0)
# Probe 503 (0.50604 0.40431 0)
# Probe 504 (0.52094 0.39343 0)
# Probe 505 (0.52265 0.41181 0)
# Probe 506 (0.50824 0.422 0)
# Probe 507 (0.52413 0.42952 0)
# Probe 508 (0.53846 0.40089 0)
# Probe 509 (0.51038 0.43931 0)
# Probe 510 (0.52572 0.44666 0)
# Probe 511 (0.53931 0.43712 0)
# Probe 512 (0.54111 0.45451 0)
# Probe 513 (0.52668 0.46392 0)
# Probe 514 (0.54169 0.47159 0)
# Probe 515 (0.52791 0.4805 0)
# Probe 516 (0.5425 0.4883 0)
# Probe 517 (0.52895 0.49686 0)
# Probe 518 (0.54466 0.50469 0)
# Probe 519 (0.53038 0.5126 0)
# Probe 520 (0.54572 0.52085 0)
# Probe 521 (0.53183 0.52788 0)
# Probe 522 (0.5457 0.53684 0)
# Probe 523 (0.52947 0.54441 0)
# Probe 524 (0.5462 0.55375 0)
# Probe 525 (0.53162 0.56262 0)
# Probe 526 (0.5592 0.49327 0)
# Probe 527 (0.56128 0.54441 0)
# Probe 528 (0.51616 0.55594 0)
# Probe 529 (0.51723 0.57209 0)
# Probe 530 (0.53234 0.57983 0)
# Probe 531 (0.5177 0.58816 0)
# Probe 532 (0.5035 0.58059 0)
# Probe 533 (0.50357 0.59607 0)
# Probe 534 (0.55397 0.44374 0)
# Probe 535 (0.32498 0.34968 0)
# Probe 536 (0.32931 0.36811 0)
# Probe 537 (0.31195 0.36302 0)
# Probe 538 (0.316 0.38011 0)
# Probe 539 (0.29907 0.37548 0)
# Probe 540 (0.34566 0.37367 0)
# Probe 541 (0.81038 0.84718 0)
# Probe 542 (0.45946 0.65118 0)
# Probe 543 (0.45795 0.63488 0)
# Probe 544 (0.41564 0.64634 0)
# Probe 545 (0.43887 0.34436 0)
# Probe 546 (0.12734 0.23822 0)
# Probe 547 (0.15655 0.21124 0)
# Probe 548 (0.25512 0.61872 0)
# Probe 549 (0.25606 0.60129 0)
# Probe 550 (0.30306 0.39178 0)
# Probe 551 (0.28667 0.38718 0)
# Probe 552 (0.29175 0.4044 0)
# Probe 553 (0.27449 0.3988 0)
# Probe 554 (0.27876 0.41376 0)
# Probe 555 (0.26228 0.41022 0)
# Probe 556 (0.26842 0.42645 0)
# Probe 557 (0.24964 0.42172 0)
# Probe 558 (0.25337 0.43895 0)
# Probe 559 (0.23541 0.43382 0)
# Probe 560 (0.24008 0.45184 0)
# Probe 561 (0.29374 0.12318 0)
# Probe 562 (0.26396 0.14791 0)
# Probe 563 (0.47288 0.64151 0)
# Probe 564 (0.47119 0.62555 0)
# Probe 565 (0.48752 0.63283 0)
# Probe 566 (0.3992 0.37374 0)
# Probe 567 (0.38409 0.64827 0)
# Probe 568 (0.51648 0.50437 0)
# Probe 569 (0.5756 0.87714 0)
# Probe 570 (0.36872 0.68986 0)
# Probe 571 (0.56263 0.5623 0)
# Probe 572 (0.57861 0.55215 0)
# Probe 573 (0.80386 0.13804 0)
# Probe 574 (0.54774 0.81692 0)
# Probe 575 (0.47829 0.40735 0)
# Probe 576 (0.09502 0.3554 0)
# Probe 577 (0.48538 0.36007 0)
# Probe 578 (0.28244 0.36985 0)
# Probe 579 (0.85113 0.86656 0)
# Probe 580 (0.42871 0.38579 0)
# Probe 581 (0.69708 0.67891 0)
# Probe 582 (0.51431 0.47359 0)
# Probe 583 (0.23095 0.41463 0)
# Probe 584 (0.21494 0.42852 0)
# Probe 585 (0.49553 0.43225 0)
# Probe 586 (0.39297 0.32009 0)
# Probe 587 (0.72966 0.37492 0)
# Probe 588 (0.14959 0.43571 0)
# Probe 589 (0.49079 0.58774 0)
# Probe 590 (0.49766 0.4477 0)
# Probe 591 (0.53262 0.59698 0)
# Probe 592 (0.64434 0.86825 0)
# Probe 593 (0.27217 0.5946 0)
# Probe 594 (0.25725 0.58376 0)
# Probe 595 (0.24207 0.59084 0)
# Probe 596 (0.24321 0.57376 0)
# Probe 597 (0.44763 0.67739 0)
# Probe 598 (0.25233 0.87095 0)
# Probe 599 (0.21934 0.85137 0)
# Probe 600 (0.28525 0.88991 0)
# Probe 601 (0.56069 0.126 0)
# Probe 602 (0.5311 0.15203 0)
# Probe 603 (0.59728 0.10267 0)
# Probe 604 (0.57689 0.53276 0)
# Probe 605 (0.72807 0.41411 0)
# Probe 606 (0.37876 0.882 0)
# Probe 607 (0.08627 0.66831 0)
# Probe 608 (0.31889 0.3979 0)
# Probe 609 (0.47306 0.88962 0)
# Probe 610 (0.53647 0.38111 0)
# Probe 611 (0.55526 0.38891 0)
# Probe 612 (0.45558 0.61775 0)
# Probe 613 (0.46885 0.61061 0)
# Probe 614 (0.80239 0.52116 0)
# Probe 615 (0.83768 0.54077 0)
# Probe 616 (0.87267 0.5195 0)
# Probe 617 (0.8752 0.55989 0)
# Probe 618 (0.2693 0.1845 0)
# Probe 619 (0.23389 0.17216 0)
# Probe 620 (0.22596 0.12566 0)
# Probe 621 (0.30863 0.71592 0)
# Probe 622 (0.35199 0.82359 0)
# Probe 623 (0.57295 0.20362 0)
# Probe 624 (0.50837 0.86501 0)
# Probe 625 (0.43735 0.91013 0)
# Probe 626 (0.25838 0.56681 0)
# Probe 627 (0.2453 0.5576 0)
# Probe 628 (0.12039 0.19777 0)
# Probe 629 (0.15417 0.16816 0)
# Probe 630 (0.8365 0.73873 0)
# Probe 631 (0.87725 0.75345 0)
# Probe 632 (0.86854 0.70669 0)
# Probe 633 (0.1134 0.15648 0)
# Probe 634 (0.14391 0.12798 0)
# Probe 635 (0.31417 0.62345 0)
# Probe 636 (0.89987 0.37929 0)
# Probe 637 (0.3948 0.16531 0)
# Probe 638 (0.39124 0.12879 0)
# Probe 639 (0.42636 0.14354 0)
# Probe 640 (0.42144 0.10658 0)
# Probe 641 (0.45708 0.12323 0)
# Probe 642 (0.46094 0.16546 0)
# Probe 643 (0.45372 0.08142 0)
# Probe 644 (0.85647 0.28482 0)
# Probe 645 (0.89713 0.26608 0)
# Probe 646 (0.45694 0.60153 0)
# Probe 647 (0.54819 0.58855 0)
# Probe 648 (0.25889 0.45593 0)
# Probe 649 (0.24446 0.4685 0)
# Probe 650 (0.3236 0.09849 0)
# Probe 651 (0.55707 0.41016 0)
# Probe 652 (0.84049 0.58095 0)
# Probe 653 (0.87729 0.60065 0)
# Probe 654 (0.54743 0.60503 0)
# Probe 655 (0.51973 0.11402 0)
# Probe 656 (0.57962 0.57239 0)
# Probe 657 (0.59876 0.55959 0)
# Probe 658 (0.29368 0.41942 0)
# Probe 659 (0.54483 0.78282 0)
# Probe 660 (0.57235 0.76461 0)
# Probe 661 (0.51453 0.80307 0)
# Probe 662 (0.44904 0.78817 0)
# Probe 663 (0.84372 0.61887 0)
# Probe 664 (0.88446 0.64512 0)
# Probe 665 (0.28564 0.08501 0)
# Probe 666 (0.48941 0.57312 0)
# Probe 667 (0.5524 0.36713 0)
# Probe 668 (0.90625 0.42004 0)
# Probe 669 (0.10683 0.39157 0)
# Probe 670 (0.09081 0.22506 0)
# Probe 671 (0.18807 0.22266 0)
# Probe 672 (0.57222 0.37391 0)
# Probe 673 (0.22991 0.46475 0)
# Probe 674 (0.23013 0.48309 0)
# Probe 675 (0.25257 0.48539 0)
# Probe 676 (0.23932 0.49894 0)
# Probe 677 (0.25945 0.3957 0)
# Probe 678 (0.21786 0.88913 0)
# Probe 679 (0.18448 0.86929 0)
# Probe 680 (0.18639 0.82472 0)
# Probe 681 (0.15032 0.84706 0)
# Probe 682 (0.31627 0.87167 0)
# Probe 683 (0.31835 0.90826 0)
# Probe 684 (0.18197 0.9091 0)
# Probe 685 (0.90936 0.72771 0)
# Probe 686 (0.25267 0.50134 0)
# Probe 687 (0.24727 0.51453 0)
# Probe 688 (0.3305 0.7048 0)
# Probe 689 (0.74153 0.19811 0)
# Probe 690 (0.28613 0.92793 0)
# Probe 691 (0.08943 0.46231 0)
# Probe 692 (0.08599 0.49861 0)
# Probe 693 (0.49034 0.60377 0)
# Probe 694 (0.50398 0.61246 0)
# Probe 695 (0.47326 0.65532 0)
# Probe 696 (0.4791 0.58091 0)
# Probe 697 (0.89427 0.33734 0)
# Probe 698 (0.10753 0.11438 0)
# Probe 699 (0.84177 0.11151 0)
# Probe 700 (0.88094 0.12974 0)
# Probe 701 (0.30554 0.4061 0)
# Probe 702 (0.47903 0.80279 0)
# Probe 703 (0.48468 0.44088 0)
# Probe 704 (0.48265 0.42761 0)
# Probe 705 (0.48495 0.45417 0)
# Probe 706 (0.49636 0.46156 0)
# Probe 707 (0.91578 0.61818 0)
# Probe 708 (0.88626 0.83911 0)
# Probe 709 (0.89106 0.88222 0)
# Probe 710 (0.84532 0.66417 0)
# Probe 711 (0.81205 0.89007 0)
# Probe 712 (0.77359 0.8717 0)
# Probe 713 (0.77385 0.91485 0)
# Probe 714 (0.73576 0.89468 0)
# Probe 715 (0.08455 0.31994 0)
# Probe 716 (0.91083 0.53863 0)
# Probe 717 (0.25902 0.55108 0)
# Probe 718 (0.24745 0.54189 0)
# Probe 719 (0.23272 0.54767 0)
# Probe 720 (0.26204 0.53538 0)
# Probe 721 (0.20826 0.53442 0)
# Probe 722 (0.21217 0.40499 0)
# Probe 723 (0.19236 0.42021 0)
# Probe 724 (0.31244 0.05524 0)
# Probe 725 (0.46911 0.59735 0)
# Probe 726 (0.30608 0.34602 0)
# Probe 727 (0.24481 0.2077 0)
# Probe 728 (0.91782 0.77237 0)
# Probe 729 (0.33346 0.38652 0)
# Probe 730 (0.3496 0.38936 0)
# Probe 731 (0.35962 0.37934 0)
# Probe 732 (0.20602 0.59924 0)
# Probe 733 (0.05435 0.47928 0)
# Probe 734 (0.04735 0.51888 0)
# Probe 735 (0.08248 0.53452 0)
# Probe 736 (0.59915 0.58235 0)
# Probe 737 (0.258 0.34289 0)
# Probe 738 (0.1508 0.80968 0)
# Probe 739 (0.11612 0.8256 0)
# Probe 740 (0.1124 0.86725 0)
# Probe 741 (0.28272 0.72404 0)
# Probe 742 (0.27728 0.69844 0)
# Probe 743 (0.25682 0.68709 0)
# Probe 744 (0.27842 0.67559 0)
# Probe 745 (0.41339 0.38162 0)
# Probe 746 (0.39941 0.38897 0)
# Probe 747 (0.38867 0.38329 0)
# Probe 748 (0.41926 0.39422 0)
# Probe 749 (0.42812 0.40016 0)
# Probe 750 (0.44223 0.39439 0)
# Probe 751 (0.45679 0.39948 0)
# Probe 752 (0.30336 0.30842 0)
# Probe 753 (0.47241 0.93102 0)
# Probe 754 (0.39056 0.39659 0)
# Probe 755 (0.3617 0.39253 0)
# Probe 756 (0.22367 0.61424 0)
# Probe 757 (0.22253 0.6374 0)
# Probe 758 (0.49163 0.4155 0)
# Probe 759 (0.93946 0.3975 0)
# Probe 760 (0.32184 0.9538 0)
# Probe 761 (0.37792 0.28113 0)
# Probe 762 (0.5029 0.56549 0)
# Probe 763 (0.49991 0.55101 0)
# Probe 764 (0.51285 0.54135 0)
# Probe 765 (0.50064 0.53661 0)
# Probe 766 (0.50883 0.52717 0)
# Probe 767 (0.49068 0.54325 0)
# Probe 768 (0.74014 0.94218 0)
# Probe 769 (0.40799 0.28625 0)
# Probe 770 (0.5154 0.48925 0)
# Probe 771 (0.50415 0.48305 0)
# Probe 772 (0.5031 0.49824 0)
# Probe 773 (0.50653 0.51335 0)
# Probe 774 (0.45758 0.30803 0)
# Probe 775 (0.46616 0.33201 0)
# Probe 776 (0.22773 0.5812 0)
# Probe 777 (0.50717 0.32867 0)
# Probe 778 (0.51463 0.35112 0)
# Probe 779 (0.80135 0.08557 0)
# Probe 780 (0.76497 0.12093 0)
# Probe 781 (0.75949 0.0778 0)
# Probe 782 (0.37012 0.64053 0)
# Probe 783 (0.38138 0.63467 0)
# Probe 784 (0.39488 0.63977 0)
# Probe 785 (0.3569 0.6341 0)
# Probe 786 (0.34368 0.6401 0)
# Probe 787 (0.34599 0.62504 0)
# Probe 788 (0.33334 0.63155 0)
# Probe 789 (0.40028 0.65303 0)
# Probe 790 (0.7038 0.3927 0)
# Probe 791 (0.69606 0.36161 0)
# Probe 792 (0.5328 0.61767 0)
# Probe 793 (0.3776 0.72388 0)
# Probe 794 (0.3531 0.71565 0)
# Probe 795 (0.88038 0.08215 0)
# Probe 796 (0.92275 0.09985 0)
# Probe 797 (0.2357 0.52991 0)
# Probe 798 (0.22819 0.39174 0)
# Probe 799 (0.52125 0.65477 0)
# Probe 800 (0.27122 0.55871 0)
# Probe 801 (0.27163 0.57497 0)
# Probe 802 (0.28444 0.58394 0)
# Probe 803 (0.28555 0.59737 0)
# Probe 804 (0.53999 0.74877 0)
# Probe 805 (0.56755 0.73306 0)
# Probe 806 (0.59624 0.74586 0)
# Probe 807 (0.26997 0.44222 0)
# Probe 808 (0.28117 0.4343 0)
# Probe 809 (0.0673 0.38376 0)
# Probe 810 (0.42925 0.63782 0)
# Probe 811 (0.41569 0.63194 0)
# Probe 812 (0.42724 0.6232 0)
# Probe 813 (0.44163 0.62681 0)
# Probe 814 (0.91465 0.49916 0)
# Probe 815 (0.37108 0.38457 0)
# Probe 816 (0.37044 0.37203 0)
# Probe 817 (0.48531 0.33842 0)
# Probe 818 (0.30123 0.61496 0)
# Probe 819 (0.31366 0.60796 0)
# Probe 820 (0.20943 0.49053 0)
# Probe 821 (0.44163 0.70894 0)
# Probe 822 (0.43605 0.31554 0)
# Probe 823 (0.61909 0.54529 0)
# Probe 824 (0.41423 0.31175 0)
# Probe 825 (0.44363 0.61457 0)
# Probe 826 (0.43004 0.95574 0)
# Probe 827 (0.46351 0.69861 0)
# Probe 828 (0.4841 0.68623 0)
# Probe 829 (0.61348 0.4943 0)
# Probe 830 (0.59192 0.48461 0)
# Probe 831 (0.58849 0.46065 0)
# Probe 832 (0.59644 0.50803 0)
# Probe 833 (0.57056 0.47606 0)
# Probe 834 (0.60641 0.44416 0)
# Probe 835 (0.58549 0.43599 0)
# Probe 836 (0.23489 0.69821 0)
# Probe 837 (0.23942 0.67399 0)
# Probe 838 (0.2022 0.67679 0)
# Probe 839 (0.20161 0.64898 0)
# Probe 840 (0.50276 0.64458 0)
# Probe 841 (0.72603 0.33711 0)
# Probe 842 (0.48797 0.50475 0)
# Probe 843 (0.48539 0.48427 0)
# Probe 844 (0.59423 0.3897 0)
# Probe 845 (0.48785 0.51547 0)
# Probe 846 (0.47273 0.56513 0)
# Probe 847 (0.47283 0.45444 0)
# Probe 848 (0.29224 0.57427 0)
# Probe 849 (0.46859 0.57492 0)
# Probe 850 (0.45278 0.5903 0)
# Probe 851 (0.29873 0.58265 0)
# Probe 852 (0.44556 0.59725 0)
# Probe 853 (0.42647 0.60865 0)
# Probe 854 (0.42723 0.41188 0)
# Probe 855 (0.33276 0.39964 0)
# Probe 856 (0.32507 0.40818 0)
# Probe 857 (0.1976 0.44821 0)
# Probe 858 (0.34329 0.6125 0)
# Probe 859 (0.32405 0.60304 0)
# Probe 860 (0.37455 0.61791 0)
# Probe 861 (0.35367 0.61513 0)
# Probe 862 (0.41653 0.40682 0)
# Probe 863 (0.6667 0.73529 0)
# Probe 864 (0.63651 0.71915 0)
# Probe 865 (0.66286 0.69589 0)
# Probe 866 (0.69616 0.7139 0)
# Probe 867 (0.6678 0.66108 0)
# Probe 868 (0.69427 0.64116 0)
# Probe 869 (0.63123 0.68795 0)
# Probe 870 (0.60993 0.70226 0)
# Probe 871 (0.38529 0.61783 0)
# Probe 872 (0.40617 0.61514 0)
# Probe 873 (0.40261 0.62641 0)
# Probe 874 (0.4463 0.40761 0)
# Probe 875 (0.4574 0.41334 0)
# Probe 876 (0.76542 0.42949 0)
# Probe 877 (0.73571 0.45071 0)
# Probe 878 (0.73878 0.48567 0)
# Probe 879 (0.70476 0.47266 0)
# Probe 880 (0.70471 0.43846 0)
# Probe 881 (0.77006 0.50255 0)
# Probe 882 (0.74094 0.51782 0)
# Probe 883 (0.60823 0.21753 0)
# Probe 884 (0.64417 0.23185 0)
# Probe 885 (0.6133 0.25533 0)
# Probe 886 (0.65354 0.2696 0)
# Probe 887 (0.42887 0.04012 0)
# Probe 888 (0.51776 0.63327 0)
# Probe 889 (0.35333 0.4024 0)
# Probe 890 (0.04304 0.22576 0)
# Probe 891 (0.53789 0.18947 0)
# Probe 892 (0.54435 0.22661 0)
# Probe 893 (0.49844 0.18149 0)
# Probe 894 (0.4603 0.43726 0)
# Probe 895 (0.46257 0.42579 0)
# Probe 896 (0.44528 0.42359 0)
# Probe 897 (0.27192 0.50467 0)
# Probe 898 (0.27216 0.52614 0)
# Probe 899 (0.26101 0.52155 0)
# Probe 900 (0.90806 0.68381 0)
# Probe 901 (0.30457 0.42852 0)
# Probe 902 (0.04438 0.68176 0)
# Probe 903 (0.05506 0.64073 0)
# Probe 904 (0.27759 0.47324 0)
# Probe 905 (0.26629 0.47627 0)
# Probe 906 (0.2867 0.45375 0)
# Probe 907 (0.95574 0.5232 0)
# Probe 908 (0.27288 0.49408 0)
# Probe 909 (0.14404 0.40155 0)
# Probe 910 (0.38536 0.09014 0)
# Probe 911 (0.27459 0.53673 0)
# Probe 912 (0.29991 0.43746 0)
# Probe 913 (0.51055 0.45769 0)
# Probe 914 (0.32453 0.61378 0)
# Probe 915 (0.14836 0.74601 0)
# Probe 916 (0.76892 0.54146 0)
# Probe 917 (0.80598 0.56034 0)
# Probe 918 (0.62077 0.57167 0)
# Probe 919 (0.49699 0.52298 0)
# Probe 920 (0.1757 0.04165 0)
# Probe 921 (0.20128 0.08279 0)
# Probe 922 (0.49204 0.5615 0)
# Probe 923 (0.57367 0.95675 0)
# Probe 924 (0.55079 0.91583 0)
# Probe 925 (0.59726 0.91751 0)
# Probe 926 (0.62386 0.95794 0)
# Probe 927 (0.64638 0.91398 0)
# Probe 928 (0.47185 0.43554 0)
# Probe 929 (0.57387 0.03953 0)
# Probe 930 (0.62397 0.03892 0)
# Probe 931 (0.64686 0.08774 0)
# Probe 932 (0.69279 0.07786 0)
# Probe 933 (0.19563 0.15945 0)
# Probe 934 (0.49269 0.14011 0)
# Probe 935 (0.47016 0.19831 0)
# Probe 936 (0.9513 0.27172 0)
# Probe 937 (0.08619 0.79719 0)
# Probe 938 (0.17811 0.95387 0)
# Probe 939 (0.20126 0.26169 0)
# Probe 940 (0.95745 0.22231 0)
# Probe 941 (0.91958 0.1973 0)
# Probe 942 (0.04143 0.87035 0)
# Probe 943 (0.03793 0.12424 0)
# Probe 944 (0.46961 0.35312 0)
# Probe 945 (0.57717 0.23989 0)
# Probe 946 (0.54673 0.8526 0)
# Probe 947 (0.6043 0.77832 0)
# Probe 948 (0.50904 0.21092 0)
# Probe 949 (0.26141 0.66434 0)
# Probe 950 (0.24426 0.64894 0)
# Probe 951 (0.29559 0.68558 0)
# Probe 952 (0.47572 0.04041 0)
# Probe 953 (0.55898 0.62202 0)
# Probe 954 (0.26965 0.46536 0)
# Probe 955 (0.30534 0.19521 0)
# Probe 956 (0.8762 0.95823 0)
# Probe 957 (0.95818 0.87489 0)
# Probe 958 (0.77165 0.82784 0)
# Probe 959 (0.60763 0.67275 0)
# Probe 960 (0.6946 0.91715 0)
# Probe 961 (0.7014 0.87104 0)
# Probe 962 (0.68233 0.45557 0)
# Probe 963 (0.30396 0.60175 0)
# Probe 964 (0.49772 0.83176 0)
# Probe 965 (0.38443 0.369 0)
# Probe 966 (0.77239 0.16945 0)
# Probe 967 (0.69116 0.55134 0)
# Probe 968 (0.47797 0.46366 0)
# Probe 969 (0.04196 0.31969 0)
# Probe 970 (0.10064 0.26268 0)
# Probe 971 (0.50158 0.07728 0)