# Probe 0 (0 0 0)
# Probe 1 (1 0 0)
# Probe 2 (1 1 0)
# Probe 3 (0 1 0)
# Probe 4 (0.48 0.41 0)
# Probe 5 (0.38 0.31 0)
# Probe 6 (0.28 0.41 0)
# Probe 7 (0.38 0.51 0)
# Probe 8 (0.05 0 0)
# Probe 9 (0.1 0 0)
# Probe 10 (0.15 0 0)
# Probe 11 (0.2 0 0)
# Probe 12 (0.25 0 0)
# Probe 13 (0.3 0 0)
# Probe 14 (0.35 0 0)
# Probe 15 (0.4 0 0)
# Probe 16 (0.45 0 0)
# Probe 17 (0.5 0 0)
# Probe 18 (0.55 0 0)
# Probe 19 (0.6 0 0)
# Probe 20 (0.65 0 0)
# Probe 21 (0.7 0 0)
# Probe 22 (0.75 0 0)
# Probe 23 (0.8 0 0)
# Probe 24 (0.85 0 0)
# Probe 25 (0.9 0 0)
# Probe 26 (0.95 0 0)
# Probe 27 (1 0.05 0)
# Probe 28 (1 0.1 0)
# Probe 29 (1 0.15 0)
# Probe 30 (1 0.2 0)
# Probe 31 (1 0.25 0)
# Probe 32 (1 0.3 0)
# Probe 33 (1 0.35 0)
# Probe 34 (1 0.4 0)
# Probe 35 (1 0.45 0)
# Probe 36 (1 0.5 0)
# Probe 37 (1 0.55 0)
# Probe 38 (1 0.6 0)
# Probe 39 (1 0.65 0)
# Probe 40 (1 0.7 0)
# Probe 41 (1 0.75 0)
# Probe 42 (1 0.8 0)
# Probe 43 (1 0.85 0)
# Probe 44 (1 0.9 0)
# Probe 45 (1 0.95 0)
# Probe 46 (0.95 1 0)
# Probe 47 (0.9 1 0)
# Probe 48 (0.85 1 0)
# Probe 49 (0.8 1 0)
# Probe 50 (0.75 1 0)
# Probe 51 (0.7 1 0)
# Probe 52 (0.65 1 0)
# Probe 53 (0.6 1 0)
# Probe 54 (0.55 1 0)
# Probe 55 (0.5 1 0)
# Probe 56 (0.45 1 0)
# Probe 57 (0.4 1 0)
# Probe 58 (0.35 1 0)
# Probe 59 (0.3 1 0)
# Probe 60 (0.25 1 0)
# Probe 61 (0.2 1 0)
# Probe 62 (0.15 1 0)
# Probe 63 (0.1 1 0)
# Probe 64 (0.05 1 0)
# Probe 65 (0 0.95 0)
# Probe 66 (0 0.9 0)
# Probe 67 (0 0.85 0)
# Probe 68 (0 0.8 0)
# Probe 69 (0 0.75 0)
# Probe 70 (0 0.7 0)
# Probe 71 (0 0.65 0)
# Probe 72 (0 0.6 0)
# Probe 73 (0 0.55 0)
# Probe 74 (0 0.5 0)
# Probe 75 (0 0.45 0)
# Probe 76 (0 0.4 0)
# Probe 77 (0 0.35 0)
# Probe 78 (0 0.3 0)
# Probe 79 (0 0.25 0)
# Probe 80 (0 0.2 0)
# Probe 81 (0 0.15 0)
# Probe 82 (0 0.1 0)
# Probe 83 (0 0.05 0)
# Probe 84 (0.47952 0.4002 0)
# Probe 85 (0.47808 0.39049 0)
# Probe 86 (0.47569 0.38097 0)
# Probe 87 (0.47239 0.37173 0)
# Probe 88 (0.46819 0.36286 0)
# Probe 89 (0.46315 0.35444 0)
# Probe 90 (0.4573 0.34656 0)
# Probe 91 (0.45071 0.33929 0)
# Probe 92 (0.44344 0.3327 0)
# Probe 93 (0.43556 0.32685 0)
# Probe 94 (0.42714 0.32181 0)
# Probe 95 (0.41827 0.31761 0)
# Probe 96 (0.40903 0.31431 0)
# Probe 97 (0.39951 0.31192 0)
# Probe 98 (0.3898 0.31048 0)
# Probe 99 (0.3702 0.31048 0)
# Probe 100 (0.36049 0.31192 0)
# Probe 101 (0.35097 0.31431 0)
# Probe 102 (0.34173 0.31761 0)
# Probe 103 (0.33286 0.32181 0)
# Probe 104 (0.32444 0.32685 0)
# Probe 105 (0.31656 0.3327 0)
# Probe 106 (0.30929 0.33929 0)
# Probe 107 (0.3027 0.34656 0)
# Probe 108 (0.29685 0.35444 0)
# Probe 109 (0.29181 0.36286 0)
# Probe 110 (0.28761 0.37173 0)
# Probe 111 (0.28431 0.38097 0)
# Probe 112 (0.28192 0.39049 0)
# Probe 113 (0.28048 0.4002 0)
# Probe 114 (0.28048 0.4198 0)
# Probe 115 (0.28192 0.42951 0)
# Probe 116 (0.28431 0.43903 0)
# Probe 117 (0.28761 0.44827 0)
# Probe 118 (0.29181 0.45714 0)
# Probe 119 (0.29685 0.46556 0)
# Probe 120 (0.3027 0.47344 0)
# Probe 121 (0.30929 0.48071 0)
# Probe 122 (0.31656 0.4873 0)
# Probe 123 (0.32444 0.49315 0)
# Probe 124 (0.33286 0.49819 0)
# Probe 125 (0.34173 0.50239 0)
# Probe 126 (0.35097 0.50569 0)
# Probe 127 (0.36049 0.50808 0)
# Probe 128 (0.3702 0.50952 0)
# Probe 129 (0.3898 0.50952 0)
# Probe 130 (0.39951 0.50808 0)
# Probe 131 (0.40903 0.50569 0)
# Probe 132 (0.41827 0.50239 0)
# Probe 133 (0.42714 0.49819 0)
# Probe 134 (0.43556 0.49315 0)
# Probe 135 (0.44344 0.4873 0)
# Probe 136 (0.45071 0.48071 0)
# Probe 137 (0.4573 0.47344 0)
# Probe 138 (0.46315 0.46556 0)
# Probe 139 (0.46819 0.45714 0)
# Probe 140 (0.47239 0.44827 0)
# Probe 141 (0.47569 0.43903 0)
# Probe 142 (0.47808 0.42951 0)
# Probe 143 (0.47952 0.4198 0)
# Probe 144 (0.95802 0.67571 0)
# Probe 145 (0.625 0.9567 0)
# Probe 146 (0.95723 0.27393 0)
# Probe 147 (0.96213 0.52523 0)
# Probe 148 (0.27603 0.95814 0)
# Probe 149 (0.47289 0.95337 0)
# Probe 150 (0.675 0.0433 0)
# Probe 151 (0.03974 0.67518 0)
# Probe 152 (0.22963 0.04247 0)
# Probe 153 (0.0376 0.22175 0)
# Probe 154 (0.52254 0.04641 0)
# Probe 155 (0.77236 0.95853 0)
# Probe 156 (0.37816 0.03788 0)
# Probe 157 (0.0415 0.52475 0)
# Probe 158 (0.0433 0.375 0)
# Probe 159 (0.04355 0.8275 0)
# Probe 160 (0.8222 0.03974 0)
# Probe 161 (0.95805 0.822 0)
# Probe 162 (0.37608 0.95414 0)
# Probe 163 (0.17737 0.95739 0)
# Probe 164 (0.96027 0.4227 0)
# Probe 165 (0.95727 0.17604 0)
# Probe 166 (0.04021 0.12748 0)
# Probe 167 (0.875 0.9567 0)
# Probe 168 (0.12564 0.04289 0)
# Probe 169 (0.04593 0.92528 0)
# Probe 170 (0.92485 0.03738 0)
# Probe 171 (0.9567 0.925 0)
# Probe 172 (0.32425 0.95796 0)
# Probe 173 (0.29959 0.91774 0)
# Probe 174 (0.25445 0.9175 0)
# Probe 175 (0.27805 0.87876 0)
# Probe 176 (0.32018 0.88026 0)
# Probe 177 (0.30072 0.84421 0)
# Probe 178 (0.33923 0.84484 0)
# Probe 179 (0.32125 0.81203 0)
# Probe 180 (0.35737 0.81224 0)
# Probe 181 (0.34042 0.78126 0)
# Probe 182 (0.3744 0.78217 0)
# Probe 183 (0.35883 0.75363 0)
# Probe 184 (0.38992 0.75409 0)
# Probe 185 (0.37544 0.72789 0)
# Probe 186 (0.40426 0.72792 0)
# Probe 187 (0.38403 0.51848 0)
# Probe 188 (0.346 0.72645 0)
# Probe 189 (0.39091 0.70355 0)
# Probe 190 (0.41839 0.70369 0)
# Probe 191 (0.43264 0.7277 0)
# Probe 192 (0.44635 0.70327 0)
# Probe 193 (0.46124 0.72752 0)
# Probe 194 (0.47464 0.70245 0)
# Probe 195 (0.46016 0.67911 0)
# Probe 196 (0.48776 0.67812 0)
# Probe 197 (0.42634 0.50797 0)
# Probe 198 (0.50268 0.70133 0)
# Probe 199 (0.51603 0.67632 0)
# Probe 200 (0.53182 0.70048 0)
# Probe 201 (0.5453 0.67419 0)
# Probe 202 (0.56195 0.69965 0)
# Probe 203 (0.57587 0.67217 0)
# Probe 204 (0.5566 0.64399 0)
# Probe 205 (0.45262 0.49063 0)
# Probe 206 (0.58926 0.64394 0)
# Probe 207 (0.60716 0.67009 0)
# Probe 208 (0.62083 0.64158 0)
# Probe 209 (0.60243 0.61575 0)
# Probe 210 (0.6335 0.61315 0)
# Probe 211 (0.61623 0.58805 0)
# Probe 212 (0.47293 0.46596 0)
# Probe 213 (0.64586 0.58541 0)
# Probe 214 (0.62863 0.56147 0)
# Probe 215 (0.65783 0.55822 0)
# Probe 216 (0.64089 0.53476 0)
# Probe 217 (0.63962 0.66814 0)
# Probe 218 (0.66844 0.53118 0)
# Probe 219 (0.65305 0.50957 0)
# Probe 220 (0.48503 0.43677 0)
# Probe 221 (0.68088 0.50444 0)
# Probe 222 (0.65889 0.48161 0)
# Probe 223 (0.67417 0.582 0)
# Probe 224 (0.69331 0.47801 0)
# Probe 225 (0.67659 0.45307 0)
# Probe 226 (0.47326 0.6558 0)
# Probe 227 (0.70726 0.4516 0)
# Probe 228 (0.68955 0.4253 0)
# Probe 229 (0.65402 0.42582 0)
# Probe 230 (0.48813 0.40425 0)
# Probe 231 (0.67042 0.39828 0)
# Probe 232 (0.70238 0.39612 0)
# Probe 233 (0.68323 0.37111 0)
# Probe 234 (0.65348 0.37283 0)
# Probe 235 (0.66444 0.34665 0)
# Probe 236 (0.63546 0.34979 0)
# Probe 237 (0.47797 0.36366 0)
# Probe 238 (0.6458 0.32325 0)
# Probe 239 (0.67558 0.31856 0)
# Probe 240 (0.59628 0.56194 0)
# Probe 241 (0.6179 0.32632 0)
# Probe 242 (0.6276 0.30063 0)
# Probe 243 (0.60048 0.30354 0)
# Probe 244 (0.61017 0.27805 0)
# Probe 245 (0.58176 0.28147 0)
# Probe 246 (0.45984 0.33762 0)
# Probe 247 (0.70524 0.50601 0)
# Probe 248 (0.28436 0.80989 0)
# Probe 249 (0.54869 0.72641 0)
# Probe 250 (0.59231 0.25583 0)
# Probe 251 (0.56363 0.25889 0)
# Probe 252 (0.62109 0.25015 0)
# Probe 253 (0.36396 0.51721 0)
# Probe 254 (0.40597 0.51618 0)
# Probe 255 (0.48532 0.38364 0)
# Probe 256 (0.44456 0.32295 0)
# Probe 257 (0.61128 0.3513 0)
# Probe 258 (0.57376 0.23266 0)
# Probe 259 (0.54562 0.23685 0)
# Probe 260 (0.57436 0.30888 0)
# Probe 261 (0.53826 0.26129 0)
# Probe 262 (0.51774 0.24413 0)
# Probe 263 (0.52448 0.21555 0)
# Probe 264 (0.4992 0.22178 0)
# Probe 265 (0.41669 0.30671 0)
# Probe 266 (0.44756 0.6565 0)
# Probe 267 (0.46002 0.63491 0)
# Probe 268 (0.43695 0.63503 0)
# Probe 269 (0.44776 0.61572 0)
# Probe 270 (0.42664 0.61582 0)
# Probe 271 (0.43615 0.59766 0)
# Probe 272 (0.45614 0.59695 0)
# Probe 273 (0.41685 0.59816 0)
# Probe 274 (0.40672 0.61536 0)
# Probe 275 (0.397 0.59813 0)
# Probe 276 (0.38716 0.61482 0)
# Probe 277 (0.37757 0.598 0)
# Probe 278 (0.36774 0.61464 0)
# Probe 279 (0.35844 0.59769 0)
# Probe 280 (0.34804 0.61451 0)
# Probe 281 (0.33841 0.59701 0)
# Probe 282 (0.32751 0.61458 0)
# Probe 283 (0.31704 0.5959 0)
# Probe 284 (0.3058 0.61465 0)
# Probe 285 (0.29484 0.59488 0)
# Probe 286 (0.28318 0.61466 0)
# Probe 287 (0.2708 0.59289 0)
# Probe 288 (0.30712 0.4903 0)
# Probe 289 (0.25825 0.61583 0)
# Probe 290 (0.24504 0.59143 0)
# Probe 291 (0.33349 0.50784 0)
# Probe 292 (0.23162 0.61539 0)
# Probe 293 (0.24556 0.64051 0)
# Probe 294 (0.21927 0.59019 0)
# Probe 295 (0.27763 0.44663 0)
# Probe 296 (0.27279 0.4259 0)
# Probe 297 (0.28691 0.4656 0)
# Probe 298 (0.23242 0.56682 0)
# Probe 299 (0.21639 0.64024 0)
# Probe 300 (0.20599 0.56561 0)
# Probe 301 (0.21983 0.5428 0)
# Probe 302 (0.44607 0.58063 0)
# Probe 303 (0.46464 0.57985 0)
# Probe 304 (0.39207 0.81126 0)
# Probe 305 (0.19295 0.54154 0)
# Probe 306 (0.20895 0.51545 0)
# Probe 307 (0.17652 0.56867 0)
# Probe 308 (0.23165 0.66686 0)
# Probe 309 (0.62454 0.51242 0)
# Probe 310 (0.18072 0.51699 0)
# Probe 311 (0.19438 0.49275 0)
# Probe 312 (0.16793 0.49369 0)
# Probe 313 (0.18235 0.4694 0)
# Probe 314 (0.2842 0.5739 0)
# Probe 315 (0.19918 0.66701 0)
# Probe 316 (0.49051 0.24556 0)
# Probe 317 (0.47466 0.22628 0)
# Probe 318 (0.48155 0.20124 0)
# Probe 319 (0.45597 0.20698 0)
# Probe 320 (0.46346 0.18108 0)
# Probe 321 (0.43642 0.18779 0)
# Probe 322 (0.38532 0.30175 0)
# Probe 323 (0.42981 0.21767 0)
# Probe 324 (0.41047 0.1959 0)
# Probe 325 (0.40316 0.22046 0)
# Probe 326 (0.38593 0.20293 0)
# Probe 327 (0.35336 0.30502 0)
# Probe 328 (0.37992 0.22587 0)
# Probe 329 (0.36297 0.20988 0)
# Probe 330 (0.35818 0.2348 0)
# Probe 331 (0.34082 0.21632 0)
# Probe 332 (0.33486 0.23784 0)
# Probe 333 (0.31777 0.2226 0)
# Probe 334 (0.32392 0.31649 0)
# Probe 335 (0.3239 0.19879 0)
# Probe 336 (0.30108 0.20584 0)
# Probe 337 (0.29465 0.23018 0)
# Probe 338 (0.28674 0.35411 0)
# Probe 339 (0.27857 0.21174 0)
# Probe 340 (0.27113 0.23837 0)
# Probe 341 (0.25309 0.21884 0)
# Probe 342 (0.2461 0.24725 0)
# Probe 343 (0.29979 0.33705 0)
# Probe 344 (0.27809 0.37351 0)
# Probe 345 (0.27263 0.39394 0)
# Probe 346 (0.22526 0.22882 0)
# Probe 347 (0.21983 0.25645 0)
# Probe 348 (0.3067 0.18011 0)
# Probe 349 (0.23261 0.19849 0)
# Probe 350 (0.20174 0.20987 0)
# Probe 351 (0.23496 0.87755 0)
# Probe 352 (0.40692 0.58348 0)
# Probe 353 (0.71529 0.36689 0)
# Probe 354 (0.45463 0.56442 0)
# Probe 355 (0.47301 0.56343 0)
# Probe 356 (0.48325 0.57883 0)
# Probe 357 (0.49158 0.56198 0)
# Probe 358 (0.1545 0.46933 0)
# Probe 359 (0.16998 0.44631 0)
# Probe 360 (0.73502 0.39319 0)
# Probe 361 (0.74869 0.36162 0)
# Probe 362 (0.76961 0.3907 0)
# Probe 363 (0.78406 0.3575 0)
# Probe 364 (0.76198 0.32827 0)
# Probe 365 (0.57939 0.7267 0)
# Probe 366 (0.56527 0.75527 0)
# Probe 367 (0.59826 0.75499 0)
# Probe 368 (0.58192 0.78545 0)
# Probe 369 (0.61779 0.78455 0)
# Probe 370 (0.54976 0.78397 0)
# Probe 371 (0.48085 0.54654 0)
# Probe 372 (0.49957 0.54457 0)
# Probe 373 (0.51036 0.56027 0)
# Probe 374 (0.51838 0.54278 0)
# Probe 375 (0.50728 0.52739 0)
# Probe 376 (0.52545 0.5252 0)
# Probe 377 (0.51326 0.50929 0)
# Probe 378 (0.53217 0.50812 0)
# Probe 379 (0.5224 0.49311 0)
# Probe 380 (0.53933 0.49163 0)
# Probe 381 (0.52911 0.47715 0)
# Probe 382 (0.54602 0.47539 0)
# Probe 383 (0.53555 0.46106 0)
# Probe 384 (0.5531 0.45898 0)
# Probe 385 (0.54229 0.44446 0)
# Probe 386 (0.56042 0.44231 0)
# Probe 387 (0.54924 0.42768 0)
# Probe 388 (0.32925 0.57939 0)
# Probe 389 (0.2418 0.27202 0)
# Probe 390 (0.21891 0.28656 0)
# Probe 391 (0.79879 0.32359 0)
# Probe 392 (0.77462 0.29318 0)
# Probe 393 (0.36873 0.58305 0)
# Probe 394 (0.21596 0.69539 0)
# Probe 395 (0.18175 0.69605 0)
# Probe 396 (0.46774 0.24962 0)
# Probe 397 (0.48149 0.26657 0)
# Probe 398 (0.19319 0.26714 0)
# Probe 399 (0.18885 0.2958 0)
# Probe 400 (0.21105 0.31444 0)
# Probe 401 (0.18511 0.32441 0)
# Probe 402 (0.15972 0.30685 0)
# Probe 403 (0.15715 0.33843 0)
# Probe 404 (0.20804 0.34028 0)
# Probe 405 (0.49164 0.17751 0)
# Probe 406 (0.39028 0.17954 0)
# Probe 407 (0.44395 0.15795 0)
# Probe 408 (0.23314 0.52277 0)
# Probe 409 (0.56793 0.42515 0)
# Probe 410 (0.5549 0.41128 0)
# Probe 411 (0.56555 0.8173 0)
# Probe 412 (0.52803 0.81808 0)
# Probe 413 (0.19941 0.72669 0)
# Probe 414 (0.1964 0.44667 0)
# Probe 415 (0.80594 0.38688 0)
# Probe 416 (0.7907 0.42099 0)
# Probe 417 (0.20871 0.17832 0)
# Probe 418 (0.1753 0.18922 0)
# Probe 419 (0.31737 0.63009 0)
# Probe 420 (0.2916 0.25513 0)
# Probe 421 (0.58012 0.44077 0)
# Probe 422 (0.81285 0.28901 0)
# Probe 423 (0.78845 0.25672 0)
# Probe 424 (0.14626 0.51868 0)
# Probe 425 (0.16241 0.72763 0)
# Probe 426 (0.35698 0.63417 0)
# Probe 427 (0.83532 0.3203 0)
# Probe 428 (0.39588 0.24151 0)
# Probe 429 (0.54964 0.50569 0)
# Probe 430 (0.1667 0.66564 0)
# Probe 431 (0.54727 0.85094 0)
# Probe 432 (0.4607 0.2721 0)
# Probe 433 (0.47413 0.28614 0)
# Probe 434 (0.49675 0.516 0)
# Probe 435 (0.83487 0.25143 0)
# Probe 436 (0.80474 0.21932 0)
# Probe 437 (0.7632 0.22475 0)
# Probe 438 (0.77904 0.18698 0)
# Probe 439 (0.73756 0.19251 0)
# Probe 440 (0.82059 0.18034 0)
# Probe 441 (0.14083 0.44401 0)
# Probe 442 (0.75335 0.15466 0)
# Probe 443 (0.71158 0.16008 0)
# Probe 444 (0.18496 0.42453 0)
# Probe 445 (0.20945 0.42618 0)
# Probe 446 (0.21899 0.44534 0)
# Probe 447 (0.53203 0.43231 0)
# Probe 448 (0.18239 0.76147 0)
# Probe 449 (0.56429 0.47356 0)
# Probe 450 (0.82792 0.41708 0)
# Probe 451 (0.81224 0.44973 0)
# Probe 452 (0.48418 0.63402 0)
# Probe 453 (0.58833 0.422 0)
# Probe 454 (0.24951 0.69422 0)
# Probe 455 (0.53066 0.55875 0)
# Probe 456 (0.52194 0.57789 0)
# Probe 457 (0.23074 0.33119 0)
# Probe 458 (0.22784 0.35381 0)
# Probe 459 (0.34895 0.25363 0)
# Probe 460 (0.58589 0.85019 0)
# Probe 461 (0.39699 0.63268 0)
# Probe 462 (0.51954 0.46279 0)
# Probe 463 (0.13014 0.31999 0)
# Probe 464 (0.13281 0.28591 0)
# Probe 465 (0.51408 0.8518 0)
# Probe 466 (0.18328 0.15356 0)
# Probe 467 (0.4478 0.75278 0)
# Probe 468 (0.63293 0.75347 0)
# Probe 469 (0.65485 0.78312 0)
# Probe 470 (0.67086 0.7504 0)
# Probe 471 (0.69319 0.78166 0)
# Probe 472 (0.71107 0.74694 0)
# Probe 473 (0.73313 0.78026 0)
# Probe 474 (0.75181 0.74364 0)
# Probe 475 (0.77434 0.77861 0)
# Probe 476 (0.79297 0.7414 0)
# Probe 477 (0.77034 0.7066 0)
# Probe 478 (0.67533 0.8166 0)
# Probe 479 (0.81071 0.70388 0)
# Probe 480 (0.78877 0.66964 0)
# Probe 481 (0.82871 0.66696 0)
# Probe 482 (0.80689 0.63294 0)
# Probe 483 (0.8472 0.63049 0)
# Probe 484 (0.82436 0.5969 0)
# Probe 485 (0.83484 0.73622 0)
# Probe 486 (0.75507 0.81586 0)
# Probe 487 (0.79801 0.81442 0)
# Probe 488 (0.78489 0.59943 0)
# Probe 489 (0.74354 0.6689 0)
# Probe 490 (0.80177 0.56456 0)
# Probe 491 (0.84128 0.56068 0)
# Probe 492 (0.21786 0.14493 0)
# Probe 493 (0.85284 0.44682 0)
# Probe 494 (0.7219 0.22951 0)
# Probe 495 (0.1425 0.76098 0)
# Probe 496 (0.15979 0.79564 0)
# Probe 497 (0.54422 0.57551 0)
# Probe 498 (0.12402 0.47 0)
# Probe 499 (0.14749 0.16443 0)
# Probe 500 (0.44726 0.25536 0)
# Probe 501 (0.44095 0.27394 0)
# Probe 502 (0.19802 0.40404 0)
# Probe 503 (0.22235 0.40768 0)
# Probe 504 (0.60144 0.43912 0)
# Probe 505 (0.49348 0.28287 0)
# Probe 506 (0.48598 0.30039 0)
# Probe 507 (0.50444 0.29835 0)
# Probe 508 (0.49508 0.31644 0)
# Probe 509 (0.51515 0.31329 0)
# Probe 510 (0.50777 0.32951 0)
# Probe 511 (0.52582 0.32751 0)
# Probe 512 (0.51871 0.34363 0)
# Probe 513 (0.53645 0.3419 0)
# Probe 514 (0.52914 0.35797 0)
# Probe 515 (0.54754 0.35643 0)
# Probe 516 (0.17236 0.40034 0)
# Probe 517 (0.12483 0.34985 0)
# Probe 518 (0.43806 0.56467 0)
# Probe 519 (0.44526 0.55047 0)
# Probe 520 (0.4302 0.55052 0)
# Probe 521 (0.10832 0.44165 0)
# Probe 522 (0.50968 0.35863 0)
# Probe 523 (0.52151 0.37297 0)
# Probe 524 (0.14085 0.202 0)
# Probe 525 (0.3322 0.17296 0)
# Probe 526 (0.31245 0.15246 0)
# Probe 527 (0.34236 0.14427 0)
# Probe 528 (0.31979 0.12102 0)
# Probe 529 (0.43649 0.53757 0)
# Probe 530 (0.45091 0.53648 0)
# Probe 531 (0.24759 0.34493 0)
# Probe 532 (0.25064 0.325 0)
# Probe 533 (0.24623 0.36377 0)
# Probe 534 (0.76361 0.56725 0)
# Probe 535 (0.74734 0.60092 0)
# Probe 536 (0.77997 0.53358 0)
# Probe 537 (0.86932 0.40977 0)
# Probe 538 (0.10054 0.29914 0)
# Probe 539 (0.56712 0.88545 0)
# Probe 540 (0.33071 0.25778 0)
# Probe 541 (0.34374 0.27066 0)
# Probe 542 (0.35981 0.26799 0)
# Probe 543 (0.32728 0.27523 0)
# Probe 544 (0.47751 0.75289 0)
# Probe 545 (0.46283 0.78015 0)
# Probe 546 (0.49149 0.33273 0)
# Probe 547 (0.55255 0.5548 0)
# Probe 548 (0.422 0.53825 0)
# Probe 549 (0.41547 0.55263 0)
# Probe 550 (0.61081 0.41836 0)
# Probe 551 (0.72755 0.12162 0)
# Probe 552 (0.6861 0.12587 0)
# Probe 553 (0.67102 0.16573 0)
# Probe 554 (0.64604 0.13422 0)
# Probe 555 (0.63158 0.1713 0)
# Probe 556 (0.60638 0.14106 0)
# Probe 557 (0.62057 0.10396 0)
# Probe 558 (0.40749 0.5384 0)
# Probe 559 (0.40064 0.55035 0)
# Probe 560 (0.53429 0.59662 0)
# Probe 561 (0.77778 0.85145 0)
# Probe 562 (0.82256 0.84941 0)
# Probe 563 (0.58176 0.11122 0)
# Probe 564 (0.56776 0.14736 0)
# Probe 565 (0.5435 0.11854 0)
# Probe 566 (0.1225 0.72635 0)
# Probe 567 (0.36104 0.8786 0)
# Probe 568 (0.19201 0.11717 0)
# Probe 569 (0.46907 0.30383 0)
# Probe 570 (0.2203 0.75468 0)
# Probe 571 (0.77478 0.45241 0)
# Probe 572 (0.2881 0.12971 0)
# Probe 573 (0.29541 0.09572 0)
# Probe 574 (0.4428 0.52478 0)
# Probe 575 (0.45666 0.52383 0)
# Probe 576 (0.40356 0.6814 0)
# Probe 577 (0.3788 0.68018 0)
# Probe 578 (0.68737 0.71636 0)
# Probe 579 (0.7367 0.29679 0)
# Probe 580 (0.11085 0.1768 0)
# Probe 581 (0.11761 0.1289 0)
# Probe 582 (0.86952 0.66242 0)
# Probe 583 (0.88928 0.62677 0)
# Probe 584 (0.59737 0.40161 0)
# Probe 585 (0.7699 0.11513 0)
# Probe 586 (0.84283 0.81099 0)
# Probe 587 (0.86824 0.84914 0)
# Probe 588 (0.7343 0.85426 0)
# Probe 589 (0.35228 0.11262 0)
# Probe 590 (0.39386 0.53905 0)
# Probe 591 (0.38672 0.55142 0)
# Probe 592 (0.3803 0.53935 0)
# Probe 593 (0.37329 0.55109 0)
# Probe 594 (0.36634 0.53703 0)
# Probe 595 (0.35984 0.55025 0)
# Probe 596 (0.35293 0.53838 0)
# Probe 597 (0.34593 0.55062 0)
# Probe 598 (0.33867 0.53817 0)
# Probe 599 (0.33138 0.55072 0)
# Probe 600 (0.32382 0.53782 0)
# Probe 601 (0.3163 0.55113 0)
# Probe 602 (0.30804 0.53808 0)
# Probe 603 (0.3154 0.52268 0)
# Probe 604 (0.29991 0.52347 0)
# Probe 605 (0.29146 0.53806 0)
# Probe 606 (0.28476 0.52272 0)
# Probe 607 (0.27323 0.53506 0)
# Probe 608 (0.42626 0.25762 0)
# Probe 609 (0.42333 0.27788 0)
# Probe 610 (0.43498 0.29014 0)
# Probe 611 (0.60793 0.88414 0)
# Probe 612 (0.82923 0.48544 0)
# Probe 613 (0.87601 0.4794 0)
# Probe 614 (0.10103 0.76144 0)
# Probe 615 (0.44916 0.51371 0)
# Probe 616 (0.46238 0.5117 0)
# Probe 617 (0.53295 0.31118 0)
# Probe 618 (0.12698 0.41692 0)
# Probe 619 (0.51141 0.59674 0)
# Probe 620 (0.52229 0.61526 0)
# Probe 621 (0.26714 0.33943 0)
# Probe 622 (0.26917 0.32105 0)
# Probe 623 (0.10332 0.26149 0)
# Probe 624 (0.09006 0.47084 0)
# Probe 625 (0.65677 0.20208 0)
# Probe 626 (0.46978 0.52243 0)
# Probe 627 (0.56011 0.59418 0)
# Probe 628 (0.07635 0.44235 0)
# Probe 629 (0.34463 0.5248 0)
# Probe 630 (0.29373 0.50778 0)
# Probe 631 (0.27824 0.50794 0)
# Probe 632 (0.28529 0.49522 0)
# Probe 633 (0.2713 0.4938 0)
# Probe 634 (0.59308 0.45841 0)
# Probe 635 (0.61504 0.45747 0)
# Probe 636 (0.50533 0.37663 0)
# Probe 637 (0.51581 0.38831 0)
# Probe 638 (0.53181 0.38595 0)
# Probe 639 (0.52567 0.40028 0)
# Probe 640 (0.3383 0.28648 0)
# Probe 641 (0.32377 0.29064 0)
# Probe 642 (0.31189 0.28025 0)
# Probe 643 (0.3097 0.298 0)
# Probe 644 (0.29644 0.28543 0)
# Probe 645 (0.29346 0.30166 0)
# Probe 646 (0.28005 0.29065 0)
# Probe 647 (0.74577 0.08117 0)
# Probe 648 (0.26141 0.35655 0)
# Probe 649 (0.26172 0.10369 0)
# Probe 650 (0.20758 0.36458 0)
# Probe 651 (0.5556 0.33959 0)
# Probe 652 (0.56735 0.35514 0)
# Probe 653 (0.55833 0.37488 0)
# Probe 654 (0.25655 0.30694 0)
# Probe 655 (0.26203 0.50748 0)
# Probe 656 (0.25521 0.49178 0)
# Probe 657 (0.2678 0.47813 0)
# Probe 658 (0.24861 0.47589 0)
# Probe 659 (0.25995 0.46383 0)
# Probe 660 (0.23679 0.48951 0)
# Probe 661 (0.06822 0.28357 0)
# Probe 662 (0.50846 0.40204 0)
# Probe 663 (0.72902 0.57057 0)
# Probe 664 (0.59604 0.07384 0)
# Probe 665 (0.11175 0.50086 0)
# Probe 666 (0.39369 0.56181 0)
# Probe 667 (0.88179 0.81278 0)
# Probe 668 (0.49799 0.36584 0)
# Probe 669 (0.30318 0.3099 0)
# Probe 670 (0.35327 0.56325 0)
# Probe 671 (0.6252 0.69808 0)
# Probe 672 (0.57961 0.37175 0)
# Probe 673 (0.41226 0.2671 0)
# Probe 674 (0.40653 0.28084 0)
# Probe 675 (0.39538 0.26879 0)
# Probe 676 (0.33445 0.29973 0)
# Probe 677 (0.60515 0.47887 0)
# Probe 678 (0.5176 0.41352 0)
# Probe 679 (0.50295 0.4151 0)
# Probe 680 (0.50979 0.42559 0)
# Probe 681 (0.83943 0.885 0)
# Probe 682 (0.8836 0.88931 0)
# Probe 683 (0.39243 0.28444 0)
# Probe 684 (0.40131 0.2932 0)
# Probe 685 (0.47571 0.50996 0)
# Probe 686 (0.46824 0.49999 0)
# Probe 687 (0.48085 0.49765 0)
# Probe 688 (0.47173 0.48705 0)
# Probe 689 (0.486 0.48531 0)
# Probe 690 (0.49446 0.77971 0)
# Probe 691 (0.47844 0.80912 0)
# Probe 692 (0.44666 0.80885 0)
# Probe 693 (0.45989 0.83952 0)
# Probe 694 (0.28207 0.33088 0)
# Probe 695 (0.07207 0.31889 0)
# Probe 696 (0.37522 0.13683 0)
# Probe 697 (0.38615 0.10443 0)
# Probe 698 (0.0817 0.72574 0)
# Probe 699 (0.10865 0.68906 0)
# Probe 700 (0.61978 0.39642 0)
# Probe 701 (0.41517 0.29218 0)
# Probe 702 (0.75993 0.88613 0)
# Probe 703 (0.71143 0.89422 0)
# Probe 704 (0.24319 0.46051 0)
# Probe 705 (0.25542 0.45112 0)
# Probe 706 (0.62355 0.84875 0)
# Probe 707 (0.64527 0.88327 0)
# Probe 708 (0.23119 0.42792 0)
# Probe 709 (0.24261 0.41086 0)
# Probe 710 (0.23558 0.39311 0)
# Probe 711 (0.0487 0.47194 0)
# Probe 712 (0.20949 0.46658 0)
# Probe 713 (0.57596 0.33569 0)
# Probe 714 (0.61941 0.21002 0)
# Probe 715 (0.50123 0.34385 0)
# Probe 716 (0.48729 0.34413 0)
# Probe 717 (0.4789 0.33469 0)
# Probe 718 (0.50631 0.7519 0)
# Probe 719 (0.41994 0.83644 0)
# Probe 720 (0.44195 0.87272 0)
# Probe 721 (0.41713 0.23792 0)
# Probe 722 (0.42455 0.65258 0)
# Probe 723 (0.47786 0.3146 0)
# Probe 724 (0.46473 0.316 0)
# Probe 725 (0.45612 0.30775 0)
# Probe 726 (0.45038 0.28576 0)
# Probe 727 (0.35402 0.28459 0)
# Probe 728 (0.37 0.28034 0)
# Probe 729 (0.41111 0.13415 0)
# Probe 730 (0.42167 0.10026 0)
# Probe 731 (0.49767 0.42575 0)
# Probe 732 (0.50329 0.43838 0)
# Probe 733 (0.62832 0.47733 0)
# Probe 734 (0.53225 0.15299 0)
# Probe 735 (0.50855 0.12403 0)
# Probe 736 (0.55864 0.17946 0)
# Probe 737 (0.37718 0.24626 0)
# Probe 738 (0.25266 0.39715 0)
# Probe 739 (0.25946 0.41067 0)
# Probe 740 (0.36607 0.29313 0)
# Probe 741 (0.71486 0.60305 0)
# Probe 742 (0.05659 0.75939 0)
# Probe 743 (0.26016 0.37163 0)
# Probe 744 (0.55371 0.28477 0)
# Probe 745 (0.13909 0.24817 0)
# Probe 746 (0.26889 0.06925 0)
# Probe 747 (0.30333 0.06281 0)
# Probe 748 (0.51202 0.28136 0)
# Probe 749 (0.37637 0.52789 0)
# Probe 750 (0.24418 0.545 0)
# Probe 751 (0.41516 0.525 0)
# Probe 752 (0.59455 0.17571 0)
# Probe 753 (0.49394 0.49516 0)
# Probe 754 (0.5 0.48327 0)
# Probe 755 (0.49028 0.47444 0)
# Probe 756 (0.25878 0.56681 0)
# Probe 757 (0.42928 0.5262 0)
# Probe 758 (0.52608 0.44804 0)
# Probe 759 (0.5349 0.41534 0)
# Probe 760 (0.10779 0.21988 0)
# Probe 761 (0.73026 0.6323 0)
# Probe 762 (0.69173 0.63064 0)
# Probe 763 (0.49059 0.53141 0)
# Probe 764 (0.57081 0.39001 0)
# Probe 765 (0.3875 0.58418 0)
# Probe 766 (0.61201 0.53785 0)
# Probe 767 (0.59773 0.51685 0)
# Probe 768 (0.58561 0.53851 0)
# Probe 769 (0.26564 0.26177 0)
# Probe 770 (0.58771 0.58923 0)
# Probe 771 (0.4009 0.52755 0)
# Probe 772 (0.20584 0.91676 0)
# Probe 773 (0.18675 0.87512 0)
# Probe 774 (0.21835 0.83908 0)
# Probe 775 (0.25039 0.42649 0)
# Probe 776 (0.29073 0.31696 0)
# Probe 777 (0.57378 0.51773 0)
# Probe 778 (0.5846 0.49648 0)
# Probe 779 (0.64279 0.45533 0)
# Probe 780 (0.39137 0.65615 0)
# Probe 781 (0.36697 0.6559 0)
# Probe 782 (0.35411 0.67817 0)
# Probe 783 (0.34432 0.65547 0)
# Probe 784 (0.32918 0.67695 0)
# Probe 785 (0.42659 0.57917 0)
# Probe 786 (0.59033 0.92087 0)
# Probe 787 (0.54629 0.9211 0)
# Probe 788 (0.37683 0.26485 0)
# Probe 789 (0.45141 0.23232 0)
# Probe 790 (0.3303 0.52574 0)
# Probe 791 (0.35349 0.51598 0)
# Probe 792 (0.41651 0.51204 0)
# Probe 793 (0.43526 0.50312 0)
# Probe 794 (0.44422 0.49698 0)
# Probe 795 (0.46016 0.48317 0)
# Probe 796 (0.46716 0.47508 0)
# Probe 797 (0.47796 0.45649 0)
# Probe 798 (0.48221 0.44665 0)
# Probe 799 (0.48835 0.455 0)
# Probe 800 (0.49029 0.41546 0)
# Probe 801 (0.41619 0.56774 0)
# Probe 802 (0.85739 0.52022 0)
# Probe 803 (0.89751 0.51318 0)
# Probe 804 (0.91671 0.47527 0)
# Probe 805 (0.48206 0.37353 0)
# Probe 806 (0.47274 0.35455 0)
# Probe 807 (0.32407 0.5032 0)
# Probe 808 (0.34321 0.51225 0)
# Probe 809 (0.74587 0.53782 0)
# Probe 810 (0.76297 0.51199 0)
# Probe 811 (0.70982 0.5403 0)
# Probe 812 (0.30574 0.77976 0)
# Probe 813 (0.27125 0.7772 0)
# Probe 814 (0.29245 0.74814 0)
# Probe 815 (0.24731 0.80718 0)
# Probe 816 (0.15488 0.37153 0)
# Probe 817 (0.46638 0.34594 0)
# Probe 818 (0.3077 0.57562 0)
# Probe 819 (0.51857 0.08987 0)
# Probe 820 (0.48106 0.09752 0)
# Probe 821 (0.31405 0.24453 0)
# Probe 822 (0.69714 0.19764 0)
# Probe 823 (0.68414 0.23498 0)
# Probe 824 (0.70628 0.26964 0)
# Probe 825 (0.66919 0.26755 0)
# Probe 826 (0.40193 0.87451 0)
# Probe 827 (0.42375 0.90792 0)
# Probe 828 (0.4649 0.90792 0)
# Probe 829 (0.42485 0.96215 0)
# Probe 830 (0.43582 0.317 0)
# Probe 831 (0.45244 0.33006 0)
# Probe 832 (0.29972 0.48288 0)
# Probe 833 (0.31504 0.49726 0)
# Probe 834 (0.31466 0.50848 0)
# Probe 835 (0.48721 0.3941 0)
# Probe 836 (0.49554 0.38669 0)
# Probe 837 (0.43003 0.67714 0)
# Probe 838 (0.42635 0.31184 0)
# Probe 839 (0.43542 0.3055 0)
# Probe 840 (0.37445 0.30174 0)
# Probe 841 (0.46152 0.54939 0)
# Probe 842 (0.03871 0.17331 0)
# Probe 843 (0.27175 0.41532 0)
# Probe 844 (0.27454 0.43634 0)
# Probe 845 (0.79034 0.50176 0)
# Probe 846 (0.31569 0.32311 0)
# Probe 847 (0.30739 0.32992 0)
# Probe 848 (0.29298 0.34539 0)
# Probe 849 (0.17583 0.04109 0)
# Probe 850 (0.15281 0.08852 0)
# Probe 851 (0.09883 0.08247 0)
# Probe 852 (0.49988 0.65459 0)
# Probe 853 (0.5268 0.65208 0)
# Probe 854 (0.04104 0.57308 0)
# Probe 855 (0.08039 0.5451 0)
# Probe 856 (0.08036 0.59214 0)
# Probe 857 (0.11433 0.57071 0)
# Probe 858 (0.11697 0.61023 0)
# Probe 859 (0.08802 0.62716 0)
# Probe 860 (0.22924 0.37435 0)
# Probe 861 (0.57295 0.61935 0)
# Probe 862 (0.7281 0.71016 0)
# Probe 863 (0.70069 0.68499 0)
# Probe 864 (0.34981 0.57928 0)
# Probe 865 (0.29693 0.55772 0)
# Probe 866 (0.74591 0.26158 0)
# Probe 867 (0.42329 0.03956 0)
# Probe 868 (0.47279 0.03721 0)
# Probe 869 (0.46948 0.61503 0)
# Probe 870 (0.32653 0.75164 0)
# Probe 871 (0.31374 0.72276 0)
# Probe 872 (0.27456 0.71564 0)
# Probe 873 (0.30109 0.69192 0)
# Probe 874 (0.25562 0.74925 0)
# Probe 875 (0.14785 0.58918 0)
# Probe 876 (0.15055 0.63264 0)
# Probe 877 (0.17657 0.60504 0)
# Probe 878 (0.47854 0.47566 0)
# Probe 879 (0.2932 0.47453 0)
# Probe 880 (0.28178 0.45642 0)
# Probe 881 (0.27505 0.46552 0)
# Probe 882 (0.95758 0.2255 0)
# Probe 883 (0.91561 0.20132 0)
# Probe 884 (0.91466 0.15311 0)
# Probe 885 (0.86812 0.17845 0)
# Probe 886 (0.87226 0.13148 0)
# Probe 887 (0.91239 0.10724 0)
# Probe 888 (0.87514 0.22551 0)
# Probe 889 (0.87133 0.08906 0)
# Probe 890 (0.82547 0.11256 0)
# Probe 891 (0.91604 0.24893 0)
# Probe 892 (0.91604 0.29584 0)
# Probe 893 (0.87806 0.27134 0)
# Probe 894 (0.95667 0.32144 0)
# Probe 895 (0.9147 0.34309 0)
# Probe 896 (0.95775 0.37261 0)
# Probe 897 (0.91647 0.40037 0)
# Probe 898 (0.17115 0.22324 0)
# Probe 899 (0.47177 0.13124 0)
# Probe 900 (0.28177 0.36353 0)
# Probe 901 (0.51119 0.45055 0)
# Probe 902 (0.50651 0.46347 0)
# Probe 903 (0.77336 0.04119 0)
# Probe 904 (0.28255 0.34328 0)
# Probe 905 (0.43579 0.51425 0)
# Probe 906 (0.67838 0.96036 0)
# Probe 907 (0.95305 0.57851 0)
# Probe 908 (0.95861 0.62991 0)
# Probe 909 (0.95792 0.7247 0)
# Probe 910 (0.91888 0.70368 0)
# Probe 911 (0.91648 0.74703 0)
# Probe 912 (0.45449 0.50175 0)
# Probe 913 (0.75527 0.42241 0)
# Probe 914 (0.32351 0.30482 0)
# Probe 915 (0.49264 0.4443 0)
# Probe 916 (0.07617 0.04213 0)
# Probe 917 (0.72287 0.96202 0)
# Probe 918 (0.49285 0.37552 0)
# Probe 919 (0.27948 0.48537 0)
# Probe 920 (0.27496 0.38369 0)
# Probe 921 (0.27142 0.40466 0)
# Probe 922 (0.95874 0.77147 0)
# Probe 923 (0.04733 0.62594 0)
# Probe 924 (0.18287 0.35287 0)
# Probe 925 (0.26063 0.84278 0)
# Probe 926 (0.20684 0.79809 0)
# Probe 927 (0.40699 0.78161 0)
# Probe 928 (0.12607 0.96018 0)
# Probe 929 (0.14943 0.91482 0)
# Probe 930 (0.14096 0.86659 0)
# Probe 931 (0.11197 0.89266 0)
# Probe 932 (0.08967 0.85608 0)
# Probe 933 (0.36224 0.16735 0)
# Probe 934 (0.379 0.5675 0)
# Probe 935 (0.76813 0.63431 0)
# Probe 936 (0.04328 0.87503 0)
# Probe 937 (0.957 0.1274 0)
# Probe 938 (0.82456 0.95978 0)
# Probe 939 (0.3436 0.91819 0)
# Probe 940 (0.95983 0.8739 0)
# Probe 941 (0.72706 0.33259 0)
# Probe 942 (0.79748 0.91711 0)
# Probe 943 (0.2609 0.66531 0)
# Probe 944 (0.88114 0.37094 0)
# Probe 945 (0.2637 0.43219 0)
# Probe 946 (0.56844 0.57091 0)
# Probe 947 (0.87789 0.72529 0)
# Probe 948 (0.62891 0.04104 0)
# Probe 949 (0.22778 0.95838 0)
# Probe 950 (0.39454 0.51821 0)
# Probe 951 (0.08423 0.80345 0)
# Probe 952 (0.38092 0.29167 0)
# Probe 953 (0.36378 0.70282 0)
# Probe 954 (0.3786 0.84298 0)
# Probe 955 (0.23374 0.30822 0)
# Probe 956 (0.11399 0.6488 0)
# Probe 957 (0.65302 0.6387 0)
# Probe 958 (0.88185 0.55362 0)
# Probe 959 (0.49422 0.61258 0)
# Probe 960 (0.7036 0.30918 0)
# Probe 961 (0.26611 0.44309 0)
# Probe 962 (0.40627 0.30353 0)
# Probe 963 (0.35809 0.52754 0)
# Probe 964 (0.53801 0.54051 0)
# Probe 965 (0.56012 0.53471 0)
# Probe 966 (0.32515 0.51414 0)
# Probe 967 (0.74026 0.45275 0)
# Probe 968 (0.2158 0.4878 0)
# Probe 969 (0.63001 0.41446 0)
# Probe 970 (0.69249 0.85501 0)
# Probe 971 (0.42521 0.29928 0)